 Entering Gaussian System, Link 0=g16
 Initial command:
 /public/software/g16/l1.exe "/tmp/Gau-6304.inp" -scrdir="/tmp/"
 Entering Link 1 = /public/software/g16/l1.exe PID=      6306.
  
 Copyright (c) 1988-2021, Gaussian, Inc.  All Rights Reserved.
  
 This is part of the Gaussian(R) 16 program.  It is based on
 the Gaussian(R) 09 system (copyright 2009, Gaussian, Inc.),
 the Gaussian(R) 03 system (copyright 2003, Gaussian, Inc.),
 the Gaussian(R) 98 system (copyright 1998, Gaussian, Inc.),
 the Gaussian(R) 94 system (copyright 1995, Gaussian, Inc.),
 the Gaussian 92(TM) system (copyright 1992, Gaussian, Inc.),
 the Gaussian 90(TM) system (copyright 1990, Gaussian, Inc.),
 the Gaussian 88(TM) system (copyright 1988, Gaussian, Inc.),
 the Gaussian 86(TM) system (copyright 1986, Carnegie Mellon
 University), and the Gaussian 82(TM) system (copyright 1983,
 Carnegie Mellon University). Gaussian is a federally registered
 trademark of Gaussian, Inc.
  
 This software contains proprietary and confidential information,
 including trade secrets, belonging to Gaussian, Inc.
  
 This software is provided under written license and may be
 used, copied, transmitted, or stored only in accord with that
 written license.
  
 The following legend is applicable only to US Government
 contracts under FAR:
  
                    RESTRICTED RIGHTS LEGEND
  
 Use, reproduction and disclosure by the US Government is
 subject to restrictions as set forth in subparagraphs (a)
 and (c) of the Commercial Computer Software - Restricted
 Rights clause in FAR 52.227-19.
  
 Gaussian, Inc.
 340 Quinnipiac St., Bldg. 40, Wallingford CT 06492
  
  
 ---------------------------------------------------------------
 Warning -- This program may not be used in any manner that
 competes with the business of Gaussian, Inc. or will provide
 assistance to any competitor of Gaussian, Inc.  The licensee
 of this program is prohibited from giving any competitor of
 Gaussian, Inc. access to this program.  By using this program,
 the user acknowledges that Gaussian, Inc. is engaged in the
 business of creating and licensing software in the field of
 computational chemistry and represents and warrants to the
 licensee that it is not a competitor of Gaussian, Inc. and that
 it will not use this program in any manner prohibited above.
 ---------------------------------------------------------------
  

 Cite this work as:
 Gaussian 16, Revision C.02,
 M. J. Frisch, G. W. Trucks, H. B. Schlegel, G. E. Scuseria, 
 M. A. Robb, J. R. Cheeseman, G. Scalmani, V. Barone, 
 G. A. Petersson, H. Nakatsuji, X. Li, M. Caricato, A. V. Marenich, 
 J. Bloino, B. G. Janesko, R. Gomperts, B. Mennucci, H. P. Hratchian, 
 J. V. Ortiz, A. F. Izmaylov, J. L. Sonnenberg, D. Williams-Young, 
 F. Ding, F. Lipparini, F. Egidi, J. Goings, B. Peng, A. Petrone, 
 T. Henderson, D. Ranasinghe, V. G. Zakrzewski, J. Gao, N. Rega, 
 G. Zheng, W. Liang, M. Hada, M. Ehara, K. Toyota, R. Fukuda, 
 J. Hasegawa, M. Ishida, T. Nakajima, Y. Honda, O. Kitao, H. Nakai, 
 T. Vreven, K. Throssell, J. A. Montgomery, Jr., J. E. Peralta, 
 F. Ogliaro, M. J. Bearpark, J. J. Heyd, E. N. Brothers, K. N. Kudin, 
 V. N. Staroverov, T. A. Keith, R. Kobayashi, J. Normand, 
 K. Raghavachari, A. P. Rendell, J. C. Burant, S. S. Iyengar, 
 J. Tomasi, M. Cossi, J. M. Millam, M. Klene, C. Adamo, R. Cammi, 
 J. W. Ochterski, R. L. Martin, K. Morokuma, O. Farkas, 
 J. B. Foresman, and D. J. Fox, Gaussian, Inc., Wallingford CT, 2019.
 
 ******************************************
 Gaussian 16:  ES64L-G16RevC.02  7-Dec-2021
                21-Nov-2025 
 ******************************************
 %nprocshared=96
 Will use up to   96 processors via shared memory.
 %mem=50GB
 %chk=IM1.chk
 -------------------------------------------------------------------
 # scrf=(solvent=n,n-dimethylformamide) def2tzvp m062x geom=allcheck
 -------------------------------------------------------------------
 1/29=7,38=1,172=1/1;
 2/12=2,40=1/2;
 3/5=44,7=101,11=2,14=-4,25=1,30=1,70=2201,72=148,74=-55/1,2,3;
 4//1;
 5/5=2,38=5,53=148/2;
 6/7=2,8=2,9=2,10=2,28=1/1;
 99/5=1,9=1/99;
 Structure from the checkpoint file:  "IM1.chk"
 -------------------
 Title Card Required
 -------------------
 Charge =  0 Multiplicity = 2
 Redundant internal coordinates found in file.  (old form).
 C,0,-3.0448592674,2.5453951405,-0.4307109258
 C,0,-2.4767477043,1.2801511563,-0.239913315
 C,0,-3.2836266997,0.1967543094,0.1640221788
 C,0,-4.6552962913,0.3285697936,0.3957684044
 C,0,-5.1951480383,1.5888727488,0.202081741
 C,0,-4.402941588,2.6822348352,-0.2060466524
 H,0,-2.426176443,3.3795429793,-0.7433441761
 H,0,-5.2677406321,-0.5076047775,0.7168186438
 H,0,-6.2563250842,1.7407729477,0.3711345879
 H,0,-4.874273914,3.6497922789,-0.3436216122
 N,0,-2.4316709679,-0.8862746984,0.2465904171
 N,0,-1.1624943884,0.8679305822,-0.3871039121
 C,0,-1.2028822134,-0.3979499105,-0.086641454
 C,0,-2.7620997937,-2.2393535421,0.6654981677
 H,0,-2.1072255735,-2.9441293709,0.1509948422
 H,0,-2.6421828537,-2.3492160574,1.7456064821
 H,0,-3.7948169433,-2.4451019061,0.3794697732
 S,0,0.233398868,-1.4586901006,-0.068550491
 O,0,0.0831172289,-2.4387698508,-1.1439312225
 O,0,0.3987152453,-1.9327945269,1.3049350262
 C,0,1.5601017248,-0.3291532526,-0.4791068915
 C,0,2.8811971187,-1.1219584247,-0.5240118347
 H,0,1.5643371687,0.4457016527,0.291542491
 H,0,1.3089622756,0.1226928246,-1.4414806836
 C,0,4.0275354169,-0.2165798217,-0.8319187761
 H,0,3.0227790094,-1.6014181617,0.4532131408
 H,0,2.7877939056,-1.9139881776,-1.2732670448
 C,0,4.5355280666,0.7586865961,0.1768623857
 H,0,4.3095465581,-0.0739705751,-1.8719336116
 H,0,3.9355986442,1.6873078088,0.1616319099
 H,0,4.4064151148,0.3436167117,1.1872465952
 C,0,6.0045923956,1.135228496,-0.0402191339
 C,0,6.5017794116,2.1527040483,0.9822623813
 H,0,6.1226859023,1.537916628,-1.0541141901
 H,0,6.6150336724,0.2258590866,0.0047894043
 H,0,7.5509659632,2.4102361445,0.8132414339
 H,0,5.916032153,3.0766547469,0.9310235072
 H,0,6.4124205525,1.7590406387,2.0001914139
 Recover connectivity data from disk.
                           ----------------------------
                           !    Current Parameters    !
                           ! (Angstroms and Degrees)  !
 --------------------------                            --------------------------
 ! Name  Definition              Value                                          !
 --------------------------------------------------------------------------------
 ! R1    R(1,2)                  1.4                                            !
 ! R2    R(1,6)                  1.3833                                         !
 ! R3    R(1,7)                  1.0846                                         !
 ! R4    R(2,3)                  1.41                                           !
 ! R5    R(2,12)                 1.3852                                         !
 ! R6    R(3,4)                  1.3973                                         !
 ! R7    R(3,11)                 1.3804                                         !
 ! R8    R(4,5)                  1.3847                                         !
 ! R9    R(4,8)                  1.0851                                         !
 ! R10   R(5,6)                  1.4105                                         !
 ! R11   R(5,9)                  1.0852                                         !
 ! R12   R(6,10)                 1.085                                          !
 ! R13   R(11,13)                1.3636                                         !
 ! R14   R(11,14)                1.4545                                         !
 ! R15   R(12,13)                1.3017                                         !
 ! R16   R(13,18)                1.7856                                         !
 ! R17   R(14,15)                1.091                                          !
 ! R18   R(14,16)                1.0923                                         !
 ! R19   R(14,17)                1.0912                                         !
 ! R20   R(18,19)                1.4627                                         !
 ! R21   R(18,20)                1.4624                                         !
 ! R22   R(18,21)                1.7901                                         !
 ! R23   R(21,22)                1.5414                                         !
 ! R24   R(21,23)                1.0928                                         !
 ! R25   R(21,24)                1.0924                                         !
 ! R26   R(22,25)                1.4929                                         !
 ! R27   R(22,26)                1.0977                                         !
 ! R28   R(22,27)                1.0943                                         !
 ! R29   R(25,28)                1.4923                                         !
 ! R30   R(25,29)                1.087                                          !
 ! R31   R(28,30)                1.1057                                         !
 ! R32   R(28,31)                1.0999                                         !
 ! R33   R(28,32)                1.532                                          !
 ! R34   R(32,33)                1.5258                                         !
 ! R35   R(32,34)                1.0973                                         !
 ! R36   R(32,35)                1.0962                                         !
 ! R37   R(33,36)                1.0935                                         !
 ! R38   R(33,37)                1.0952                                         !
 ! R39   R(33,38)                1.0951                                         !
 ! A1    A(2,1,6)              117.7526                                         !
 ! A2    A(2,1,7)              120.1904                                         !
 ! A3    A(6,1,7)              122.057                                          !
 ! A4    A(1,2,3)              120.0828                                         !
 ! A5    A(1,2,12)             129.7517                                         !
 ! A6    A(3,2,12)             110.1655                                         !
 ! A7    A(2,3,4)              122.4653                                         !
 ! A8    A(2,3,11)             105.4737                                         !
 ! A9    A(4,3,11)             132.0607                                         !
 ! A10   A(3,4,5)              116.4474                                         !
 ! A11   A(3,4,8)              122.0353                                         !
 ! A12   A(5,4,8)              121.5161                                         !
 ! A13   A(4,5,6)              121.8046                                         !
 ! A14   A(4,5,9)              119.133                                          !
 ! A15   A(6,5,9)              119.0622                                         !
 ! A16   A(1,6,5)              121.4465                                         !
 ! A17   A(1,6,10)             119.6102                                         !
 ! A18   A(5,6,10)             118.9432                                         !
 ! A19   A(3,11,13)            105.1039                                         !
 ! A20   A(3,11,14)            127.3645                                         !
 ! A21   A(13,11,14)           127.4632                                         !
 ! A22   A(2,12,13)            103.6173                                         !
 ! A23   A(11,13,12)           115.6347                                         !
 ! A24   A(11,13,18)           120.6389                                         !
 ! A25   A(12,13,18)           123.7172                                         !
 ! A26   A(11,14,15)           109.194                                          !
 ! A27   A(11,14,16)           110.6973                                         !
 ! A28   A(11,14,17)           108.3564                                         !
 ! A29   A(15,14,16)           109.6004                                         !
 ! A30   A(15,14,17)           108.8246                                         !
 ! A31   A(16,14,17)           110.1298                                         !
 ! A32   A(13,18,19)           107.9354                                         !
 ! A33   A(13,18,20)           107.0398                                         !
 ! A34   A(13,18,21)           102.6488                                         !
 ! A35   A(19,18,20)           119.0049                                         !
 ! A36   A(19,18,21)           109.2877                                         !
 ! A37   A(20,18,21)           109.6447                                         !
 ! A38   A(18,21,22)           108.5024                                         !
 ! A39   A(18,21,23)           106.7696                                         !
 ! A40   A(18,21,24)           107.0166                                         !
 ! A41   A(22,21,23)           112.4518                                         !
 ! A42   A(22,21,24)           112.5888                                         !
 ! A43   A(23,21,24)           109.199                                          !
 ! A44   A(21,22,25)           110.6227                                         !
 ! A45   A(21,22,26)           108.0157                                         !
 ! A46   A(21,22,27)           108.607                                          !
 ! A47   A(25,22,26)           110.4556                                         !
 ! A48   A(25,22,27)           111.3022                                         !
 ! A49   A(26,22,27)           107.724                                          !
 ! A50   A(22,25,28)           121.2206                                         !
 ! A51   A(22,25,29)           118.4336                                         !
 ! A52   A(28,25,29)           118.2124                                         !
 ! A53   A(25,28,30)           110.7861                                         !
 ! A54   A(25,28,31)           109.5357                                         !
 ! A55   A(25,28,32)           113.0338                                         !
 ! A56   A(30,28,31)           105.4205                                         !
 ! A57   A(30,28,32)           108.1752                                         !
 ! A58   A(31,28,32)           109.6013                                         !
 ! A59   A(28,32,33)           112.4217                                         !
 ! A60   A(28,32,34)           108.9245                                         !
 ! A61   A(28,32,35)           108.9222                                         !
 ! A62   A(33,32,34)           109.841                                          !
 ! A63   A(33,32,35)           110.1352                                         !
 ! A64   A(34,32,35)           106.4061                                         !
 ! A65   A(32,33,36)           111.4777                                         !
 ! A66   A(32,33,37)           110.9141                                         !
 ! A67   A(32,33,38)           110.8932                                         !
 ! A68   A(36,33,37)           107.8938                                         !
 ! A69   A(36,33,38)           107.8575                                         !
 ! A70   A(37,33,38)           107.646                                          !
 ! D1    D(6,1,2,3)              0.185                                          !
 ! D2    D(6,1,2,12)          -179.7805                                         !
 ! D3    D(7,1,2,3)           -179.8767                                         !
 ! D4    D(7,1,2,12)             0.1578                                         !
 ! D5    D(2,1,6,5)              0.023                                          !
 ! D6    D(2,1,6,10)           179.9213                                         !
 ! D7    D(7,1,6,5)           -179.9141                                         !
 ! D8    D(7,1,6,10)            -0.0158                                         !
 ! D9    D(1,2,3,4)             -0.3493                                         !
 ! D10   D(1,2,3,11)           179.4744                                         !
 ! D11   D(12,2,3,4)           179.6224                                         !
 ! D12   D(12,2,3,11)           -0.5539                                         !
 ! D13   D(1,2,12,13)         -179.8566                                         !
 ! D14   D(3,2,12,13)            0.1752                                         !
 ! D15   D(2,3,4,5)              0.2806                                         !
 ! D16   D(2,3,4,8)           -179.3281                                         !
 ! D17   D(11,3,4,5)          -179.4906                                         !
 ! D18   D(11,3,4,8)             0.9007                                         !
 ! D19   D(2,3,11,13)            0.6833                                         !
 ! D20   D(2,3,11,14)          177.8343                                         !
 ! D21   D(4,3,11,13)         -179.5171                                         !
 ! D22   D(4,3,11,14)           -2.366                                          !
 ! D23   D(3,4,5,6)             -0.0656                                         !
 ! D24   D(3,4,5,9)           -179.9113                                         !
 ! D25   D(8,4,5,6)            179.5453                                         !
 ! D26   D(8,4,5,9)             -0.3004                                         !
 ! D27   D(4,5,6,1)             -0.0844                                         !
 ! D28   D(4,5,6,10)          -179.9834                                         !
 ! D29   D(9,5,6,1)            179.7614                                         !
 ! D30   D(9,5,6,10)            -0.1376                                         !
 ! D31   D(3,11,13,12)          -0.6474                                         !
 ! D32   D(3,11,13,18)         178.2907                                         !
 ! D33   D(14,11,13,12)       -177.7947                                         !
 ! D34   D(14,11,13,18)          1.1435                                         !
 ! D35   D(3,11,14,15)         149.9226                                         !
 ! D36   D(3,11,14,16)         -89.3313                                         !
 ! D37   D(3,11,14,17)          31.5311                                         !
 ! D38   D(13,11,14,15)        -33.5433                                         !
 ! D39   D(13,11,14,16)         87.2028                                         !
 ! D40   D(13,11,14,17)       -151.9348                                         !
 ! D41   D(2,12,13,11)           0.2962                                         !
 ! D42   D(2,12,13,18)        -178.6054                                         !
 ! D43   D(11,13,18,19)         67.7615                                         !
 ! D44   D(11,13,18,20)        -61.4551                                         !
 ! D45   D(11,13,18,21)       -176.8688                                         !
 ! D46   D(12,13,18,19)       -113.3895                                         !
 ! D47   D(12,13,18,20)        117.3939                                         !
 ! D48   D(12,13,18,21)          1.9802                                         !
 ! D49   D(13,18,21,22)       -179.067                                          !
 ! D50   D(13,18,21,23)         59.5034                                         !
 ! D51   D(13,18,21,24)        -57.3305                                         !
 ! D52   D(19,18,21,22)        -64.6793                                         !
 ! D53   D(19,18,21,23)        173.891                                          !
 ! D54   D(19,18,21,24)         57.0571                                         !
 ! D55   D(20,18,21,22)         67.4176                                         !
 ! D56   D(20,18,21,23)        -54.012                                          !
 ! D57   D(20,18,21,24)       -170.846                                          !
 ! D58   D(18,21,22,25)       -178.6668                                         !
 ! D59   D(18,21,22,26)        -57.6658                                         !
 ! D60   D(18,21,22,27)         58.9033                                         !
 ! D61   D(23,21,22,25)        -60.7954                                         !
 ! D62   D(23,21,22,26)         60.2056                                         !
 ! D63   D(23,21,22,27)        176.7747                                         !
 ! D64   D(24,21,22,25)         63.074                                          !
 ! D65   D(24,21,22,26)       -175.925                                          !
 ! D66   D(24,21,22,27)        -59.3559                                         !
 ! D67   D(21,22,25,28)         72.0518                                         !
 ! D68   D(21,22,25,29)        -91.0484                                         !
 ! D69   D(26,22,25,28)        -47.4904                                         !
 ! D70   D(26,22,25,29)        149.4094                                         !
 ! D71   D(27,22,25,28)       -167.1069                                         !
 ! D72   D(27,22,25,29)         29.7929                                         !
 ! D73   D(22,25,28,30)        -83.6526                                         !
 ! D74   D(22,25,28,31)         32.2263                                         !
 ! D75   D(22,25,28,32)        154.7509                                         !
 ! D76   D(29,25,28,30)         79.4838                                         !
 ! D77   D(29,25,28,31)       -164.6373                                         !
 ! D78   D(29,25,28,32)        -42.1127                                         !
 ! D79   D(25,28,32,33)        178.9072                                         !
 ! D80   D(25,28,32,34)         56.9278                                         !
 ! D81   D(25,28,32,35)        -58.7414                                         !
 ! D82   D(30,28,32,33)         55.8511                                         !
 ! D83   D(30,28,32,34)        -66.1284                                         !
 ! D84   D(30,28,32,35)        178.2025                                         !
 ! D85   D(31,28,32,33)        -58.6048                                         !
 ! D86   D(31,28,32,34)        179.4157                                         !
 ! D87   D(31,28,32,35)         63.7466                                         !
 ! D88   D(28,32,33,36)        179.9986                                         !
 ! D89   D(28,32,33,37)        -59.7478                                         !
 ! D90   D(28,32,33,38)         59.8052                                         !
 ! D91   D(34,32,33,36)        -58.5436                                         !
 ! D92   D(34,32,33,37)         61.71                                           !
 ! D93   D(34,32,33,38)       -178.737                                          !
 ! D94   D(35,32,33,36)         58.3356                                         !
 ! D95   D(35,32,33,37)        178.5891                                         !
 ! D96   D(35,32,33,38)        -61.8578                                         !
 --------------------------------------------------------------------------------
                          Input orientation:                          
 ---------------------------------------------------------------------
 Center     Atomic      Atomic             Coordinates (Angstroms)
 Number     Number       Type             X           Y           Z
 ---------------------------------------------------------------------
      1          6           0       -3.044859    2.545395   -0.430711
      2          6           0       -2.476748    1.280151   -0.239913
      3          6           0       -3.283627    0.196754    0.164022
      4          6           0       -4.655296    0.328570    0.395768
      5          6           0       -5.195148    1.588873    0.202082
      6          6           0       -4.402942    2.682235   -0.206047
      7          1           0       -2.426176    3.379543   -0.743344
      8          1           0       -5.267741   -0.507605    0.716819
      9          1           0       -6.256325    1.740773    0.371135
     10          1           0       -4.874274    3.649792   -0.343622
     11          7           0       -2.431671   -0.886275    0.246590
     12          7           0       -1.162494    0.867931   -0.387104
     13          6           0       -1.202882   -0.397950   -0.086641
     14          6           0       -2.762100   -2.239354    0.665498
     15          1           0       -2.107226   -2.944129    0.150995
     16          1           0       -2.642183   -2.349216    1.745606
     17          1           0       -3.794817   -2.445102    0.379470
     18         16           0        0.233399   -1.458690   -0.068550
     19          8           0        0.083117   -2.438770   -1.143931
     20          8           0        0.398715   -1.932795    1.304935
     21          6           0        1.560102   -0.329153   -0.479107
     22          6           0        2.881197   -1.121958   -0.524012
     23          1           0        1.564337    0.445702    0.291542
     24          1           0        1.308962    0.122693   -1.441481
     25          6           0        4.027535   -0.216580   -0.831919
     26          1           0        3.022779   -1.601418    0.453213
     27          1           0        2.787794   -1.913988   -1.273267
     28          6           0        4.535528    0.758687    0.176862
     29          1           0        4.309547   -0.073971   -1.871934
     30          1           0        3.935599    1.687308    0.161632
     31          1           0        4.406415    0.343617    1.187247
     32          6           0        6.004592    1.135228   -0.040219
     33          6           0        6.501779    2.152704    0.982262
     34          1           0        6.122686    1.537917   -1.054114
     35          1           0        6.615034    0.225859    0.004789
     36          1           0        7.550966    2.410236    0.813241
     37          1           0        5.916032    3.076655    0.931024
     38          1           0        6.412421    1.759041    2.000191
 ---------------------------------------------------------------------
                    Distance matrix (angstroms):
                    1          2          3          4          5
     1  C    0.000000
     2  C    1.399999   0.000000
     3  C    2.434508   1.409953   0.000000
     4  C    2.861973   2.460828   1.397340   0.000000
     5  C    2.437028   2.771348   2.365028   1.384673   0.000000
     6  C    1.383325   2.382689   2.750896   2.442458   1.410532
     7  H    1.084579   2.159501   3.418871   3.946516   3.430384
     8  H    3.947003   3.449790   2.176790   1.085057   2.159963
     9  H    3.406448   3.856262   3.356162   2.134998   1.085242
    10  H    2.138699   3.372549   3.835535   3.409570   2.155955
    11  N    3.551210   2.220837   1.380434   2.538230   3.710140
    12  N    2.521723   1.385227   2.292034   3.619871   4.138743
    13  C    3.489204   2.112404   2.178532   3.560858   4.468670
    14  C    4.916853   3.645286   2.541277   3.201746   4.559583
    15  H    5.599323   4.258392   3.353989   4.154893   5.485069
    16  H    5.371752   4.140286   3.065098   3.611817   4.940510
    17  H    5.111153   3.999807   2.699470   2.904126   4.273798
    18  S    5.187565   3.856878   3.894105   5.225823   6.231372
    19  O    5.927463   4.604403   4.471207   5.699246   6.774492
    20  O    5.909725   4.580160   4.404123   5.611006   6.701472
    21  C    5.428723   4.352382   4.914458   6.311036   7.055228
    22  C    6.969672   5.878641   6.341723   7.729732   8.550039
    23  H    5.116156   4.160423   4.856026   6.221609   6.856055
    24  H    5.083985   4.137037   4.865696   6.244217   6.866908
    25  C    7.603173   6.700476   7.390253   8.786124   9.454454
    26  H    7.402271   6.247292   6.564130   7.917133   8.819033
    27  H    7.390253   6.243857   6.586591   7.950744   8.841609
    28  C    7.811770   7.043979   7.839331   9.203487   9.766059
    29  H    7.938859   7.109917   7.866047   9.255967   9.869438
    30  H    7.057902   6.437795   7.371497   8.700831   9.131367
    31  H    7.936442   7.091672   7.759207   9.096223   9.731969
    32  C    9.166986   8.484928   9.337744  10.699253  11.211543
    33  C    9.658624   9.103242  10.012464  11.320414  11.736469
    34  H    9.243783   8.641737   9.579211  10.942101  11.387449
    35  H    9.944015   9.155976   9.899984  11.277577  11.890211
    36  H   10.669452  10.145998  11.077427  12.389530  12.787165
    37  H    9.079324   8.662406   9.670359  10.935788  11.234019
    38  H    9.796315   9.179582   9.991276  11.274519  11.747247
                    6          7          8          9         10
     6  C    0.000000
     7  H    2.163915   0.000000
     8  H    3.431419   5.031548   0.000000
     9  H    2.157433   4.312501   2.480322   0.000000
    10  H    1.085011   2.495194   4.308515   2.462782   0.000000
    11  N    4.101835   4.379178   2.899620   4.641645   5.185611
    12  N    3.718196   2.834078   4.468086   5.223398   4.638745
    13  C    4.443217   4.024570   4.144954   5.506449   5.470774
    14  C    5.260607   5.802558   3.046280   5.304495   6.337321
    15  H    6.087180   6.394560   4.030591   6.261932   7.168054
    16  H    5.676682   6.249817   3.368010   5.628428   6.733142
    17  H    5.196367   6.087723   2.457072   4.855990   6.231840
    18  S    6.217863   5.562121   5.637722   7.248890   7.229148
    19  O    6.872339   6.348999   5.985271   7.742902   7.892199
    20  O    6.829163   6.355815   5.872459   7.658763   7.854135
    21  C    6.685874   5.451116   6.934084   8.130439   7.566476
    22  C    8.223847   6.962746   8.265729   9.617215   9.107660
    23  H    6.392033   5.059903   6.911363   7.927566   7.219788
    24  H    6.379921   5.004571   6.950435   7.945900   7.202648
    25  C    8.936878   7.388528   9.427908  10.537379   9.717483
    26  H    8.598002   7.478826   8.366518   9.862999   9.517016
    27  H    8.600634   7.449012   8.416056   9.892291   9.514577
    28  C    9.151115   7.495398   9.899451  10.838188   9.857676
    29  H    9.288665   7.653132   9.930464  10.952730  10.027198
    30  H    8.405731   6.644910   9.477728  10.194217   9.039938
    31  H    9.220367   7.721939   9.722920  10.784809   9.970233
    32  C   10.523188   8.752668  11.416545  12.282752  11.169817
    33  C   10.982050   9.175579  12.069354  12.779374  11.550491
    34  H   10.621559   8.750498  11.707356  12.462439  11.220425
    35  H   11.290439   9.604629  11.926663  12.965379  11.993702
    36  H   12.000368  10.144254  13.146951  13.830579  12.540391
    37  H   10.388923   8.513970  11.746045  12.258235  10.880437
    38  H   11.076635   9.395414  11.967075  12.773068  11.681518
                   11         12         13         14         15
    11  N    0.000000
    12  N    2.256017   0.000000
    13  C    1.363608   1.301677   0.000000
    14  C    1.454472   3.649921   2.527378   0.000000
    15  H    2.085466   3.964072   2.712441   1.091001   0.000000
    16  H    2.105128   4.133759   3.039105   1.092284   1.784065
    17  H    2.075034   4.300342   3.335598   1.091169   1.774597
    18  S    2.744006   2.731878   1.785609   3.181395   2.780873
    19  O    3.266183   3.613669   2.633743   3.377730   2.594190
    20  O    3.197872   3.625525   2.618654   3.239384   2.938387
    21  C    4.095274   2.975568   2.791566   4.862141   4.548013
    22  C    5.373634   4.508863   4.170754   5.874547   5.353532
    23  H    4.212394   2.841557   2.917580   5.105626   4.999108
    24  H    4.226102   2.788402   2.901038   5.156760   4.859189
    25  C    6.582782   5.320755   5.286360   7.241065   6.785347
    26  H    5.505011   4.931565   4.426736   5.823817   5.311418
    27  H    5.532538   4.912142   4.430795   5.887783   5.201051
    28  C    7.159094   5.726906   5.859744   7.904580   7.605110
    29  H    7.112805   5.747619   5.803370   7.818927   7.314712
    30  H    6.868236   5.192595   5.551029   7.780213   7.613544
    31  H    7.011197   5.810872   5.799735   7.637510   7.369573
    32  C    8.679820   7.180453   7.368886   9.420230   9.081812
    33  C    9.464837   7.890938   8.185976  10.257191  10.039108
    34  H    8.985853   7.346267   7.638556   9.806337   9.448411
    35  H    9.118014   7.813820   7.843297   9.718253   9.281595
    36  H   10.528111   8.929946   9.237183  11.313701  11.062932
    37  H    9.265927   7.531365   7.986705  10.180394  10.061359
    38  H    9.396317   7.992033   8.185372  10.096553   9.905741
                   16         17         18         19         20
    16  H    0.000000
    17  H    1.789997   0.000000
    18  S    3.514708   4.171361   0.000000
    19  O    3.972997   4.166433   1.462732   0.000000
    20  O    3.100751   4.324888   1.462384   2.520428   0.000000
    21  C    5.166159   5.821473   1.790126   2.659691   2.665200
    22  C    6.096315   6.865577   2.707705   3.153973   3.188294
    23  H    5.255538   6.089746   2.351121   3.546093   2.835998
    24  H    5.646185   5.996498   2.354261   2.855227   3.549138
    25  C    7.461697   8.223319   4.064608   4.538052   4.547513
    26  H    5.858436   6.869997   2.841347   3.448716   2.778660
    27  H    6.227975   6.807671   2.860694   2.758151   3.514993
    28  C    7.977440   8.927483   4.846164   5.638456   5.062592
    29  H    8.160262   8.739095   4.667400   4.897445   5.370505
    30  H    7.878433   8.768329   4.863802   5.794016   5.188625
    31  H    7.566099   8.699981   4.715867   5.645084   4.610592
    32  C    9.491957  10.441424   6.327392   7.003964   6.530548
    33  C   10.220667  11.292612   7.310196   8.173222   7.351381
    34  H    9.988551  10.783156   6.680920   7.231770   7.097520
    35  H    9.765117  10.753577   6.600632   7.147429   6.707666
    36  H   11.288134  12.348654   8.324238   9.116586   8.382027
    37  H   10.165956  11.184570   7.338993   8.291456   7.461580
    38  H    9.946277  11.157475   7.267310   8.219927   7.090676
                   21         22         23         24         25
    21  C    0.000000
    22  C    1.541379   0.000000
    23  H    1.092849   2.203816   0.000000
    24  H    1.092428   2.205182   1.781269   0.000000
    25  C    2.495071   1.492853   2.787136   2.806655   0.000000
    26  H    2.151117   1.097677   2.518708   3.082141   2.139831
    27  H    2.156298   1.094266   3.084414   2.522560   2.147776
    28  C    3.235252   2.600935   2.989831   3.665276   1.492260
    29  H    3.092658   2.226062   3.533676   3.037675   1.086968
    30  H    3.181139   3.077961   2.679803   3.452131   2.149508
    31  H    3.366133   2.720773   2.981629   4.068566   2.129413
    32  C    4.700057   3.883883   4.505705   5.003769   2.522485
    33  C    5.719737   5.108903   5.269657   6.079542   3.876421
    34  H    4.963241   4.226487   4.876707   5.032380   2.741767
    35  H    5.108281   4.004719   5.063605   5.500612   2.755173
    36  H    6.713038   6.005946   6.322285   7.019917   4.692683
    37  H    5.706323   5.381050   5.125241   5.964877   4.185664
    38  H    5.835450   5.209731   5.305493   6.369304   4.196618
                   26         27         28         29         30
    26  H    0.000000
    27  H    1.770212   0.000000
    28  C    2.816891   3.507227   0.000000
    29  H    3.065155   2.461666   2.223050   0.000000
    30  H    3.425489   4.042984   1.105660   2.716124   0.000000
    31  H    2.497281   3.710908   1.099922   3.089069   1.754725
    32  C    4.077244   4.600644   1.532011   2.773179   2.150877
    33  C    5.145558   5.951394   2.541279   4.232068   2.734102
    34  H    4.662283   4.804704   2.154431   2.560173   2.506732
    35  H    4.055160   4.567290   2.153569   2.987852   3.056109
    36  H    6.060319   6.763153   3.496493   4.887561   3.744075
    37  H    5.521194   6.288981   2.801344   4.512627   2.538575
    38  H    5.017519   6.111022   2.801421   4.772354   3.085465
                   31         32         33         34         35
    31  H    0.000000
    32  C    2.165062   0.000000
    33  C    2.775854   1.525752   0.000000
    34  H    3.065230   1.097309   2.160672   0.000000
    35  H    2.508001   1.096183   2.163565   1.756468   0.000000
    36  H    3.781401   2.178373   1.093473   2.507577   2.510193
    37  H    3.132745   2.172623   1.095176   2.520157   3.077913
    38  H    2.586187   2.172266   1.095050   3.075975   2.524545
                   36         37         38
    36  H    0.000000
    37  H    1.769462   0.000000
    38  H    1.768952   1.767945   0.000000
 Stoichiometry    C14H19N2O2S(2)
 Framework group  C1[X(C14H19N2O2S)]
 Deg. of freedom   108
 Full point group                 C1      NOp   1
 Largest Abelian subgroup         C1      NOp   1
 Largest concise Abelian subgroup C1      NOp   1
                         Standard orientation:                         
 ---------------------------------------------------------------------
 Center     Atomic      Atomic             Coordinates (Angstroms)
 Number     Number       Type             X           Y           Z
 ---------------------------------------------------------------------
      1          6           0       -3.047382    2.537954   -0.443434
      2          6           0       -2.477793    1.274196   -0.247272
      3          6           0       -3.283504    0.191455    0.160732
      4          6           0       -4.655430    0.322520    0.391387
      5          6           0       -5.196752    1.581360    0.192367
      6          6           0       -4.405724    2.674032   -0.219876
      7          1           0       -2.429598    3.371587   -0.759201
      8          1           0       -5.266976   -0.513098    0.715581
      9          1           0       -6.258184    1.732638    0.360373
     10          1           0       -4.878190    3.640442   -0.361569
     11          7           0       -2.430251   -0.890180    0.248041
     12          7           0       -1.162974    0.863000   -0.392256
     13          6           0       -1.201927   -0.401699   -0.086674
     14          6           0       -2.759186   -2.241953    0.672305
     15          1           0       -2.103235   -2.948005    0.160932
     16          1           0       -2.639577   -2.347283    1.752899
     17          1           0       -3.791533   -2.450133    0.386697
     18         16           0        0.235650   -1.460587   -0.063696
     19          8           0        0.087014   -2.445208   -1.135149
     20          8           0        0.400987   -1.928908    1.311770
     21          6           0        1.561130   -0.331093   -0.478298
     22          6           0        2.883218   -1.122446   -0.519450
     23          1           0        1.564097    0.446889    0.289201
     24          1           0        1.309829    0.116533   -1.442600
     25          6           0        4.028568   -0.216913   -0.830566
     26          1           0        3.024990   -1.597760    0.459771
     27          1           0        2.791096   -1.917625   -1.265521
     28          6           0        4.534948    0.763065    0.174453
     29          1           0        4.310829   -0.078180   -1.871037
     30          1           0        3.933883    1.690877    0.155210
     31          1           0        4.405932    0.351941    1.186461
     32          6           0        6.003636    1.140532   -0.043562
     33          6           0        6.499153    2.162761    0.974982
     34          1           0        6.121649    1.539246   -1.059035
     35          1           0        6.615177    0.232105    0.005385
     36          1           0        7.548091    2.420897    0.805341
     37          1           0        5.912291    3.085774    0.919755
     38          1           0        6.409862    1.773123    1.994464
 ---------------------------------------------------------------------
 Rotational constants (GHZ):           0.6281771           0.1495923           0.1274860
 Standard basis: def2TZVP (5D, 7F)
 There are   804 symmetry adapted cartesian basis functions of A   symmetry.
 There are   709 symmetry adapted basis functions of A   symmetry.
   709 basis functions,  1139 primitive gaussians,   804 cartesian basis functions
    75 alpha electrons       74 beta electrons
       nuclear repulsion energy      1563.3374530338 Hartrees.
 NAtoms=   38 NActive=   38 NUniq=   38 SFac= 1.00D+00 NAtFMM=   60 NAOKFM=F Big=F
 Integral buffers will be    131072 words long.
 Raffenetti 2 integral format.
 Two-electron integral symmetry is turned on.
 ------------------------------------------------------------------------------
 Polarizable Continuum Model (PCM)
 =================================
 Model                : PCM.
 Atomic radii         : UFF (Universal Force Field).
 Polarization charges : Total charges.
 Charge compensation  : None.
 Solution method      : On-the-fly selection.
 Cavity type          : Scaled VdW (van der Waals Surface) (Alpha=1.100).
 Cavity algorithm     : GePol (No added spheres)
                        Default sphere list used, NSphG=   38.
                        Lebedev-Laikov grids with approx.  5.0 points / Ang**2.
                        Smoothing algorithm: York/Karplus (Gamma=1.0000).
                        Polarization charges: spherical gaussians, with
                                              point-specific exponents (IZeta= 3).
                        Self-potential: point-specific (ISelfS= 7).
                        Self-field    : sphere-specific E.n sum rule (ISelfD= 2).
 Solvent              : n,n-DiMethylFormamide, Eps=  37.219000 Eps(inf)=   2.046330
 ------------------------------------------------------------------------------
 One-electron integrals computed using PRISM.
   1 Symmetry operations used in ECPInt.
 ECPInt:  NShTT=   41328 NPrTT=  126240 LenC2=   33576 LenP2D=   72617.
 LDataN:  DoStor=T MaxTD1= 6 Len=  172
 Number of processors reduced to  85 by ecpmxn.
 NBasis=   709 RedAO= T EigKep=  8.19D-06  NBF=   709
 NBsUse=   709 1.00D-06 EigRej= -1.00D+00 NBFU=   709
 ExpMin= 9.52D-02 ExpMax= 6.07D+04 ExpMxC= 2.07D+03 IAcc=3 IRadAn=         5 AccDes= 0.00D+00
 Harris functional with IExCor= 1009 and IRadAn=       5 diagonalized for initial guess.
 HarFok:  IExCor= 1009 AccDes= 0.00D+00 IRadAn=         5 IDoV= 1 UseB2=F ITyADJ=14
 ICtDFT=  3500011 ScaDFX=  1.000000  1.000000  1.000000  1.000000
 FoFCou: FMM=F IPFlag=           0 FMFlag=      100000 FMFlg1=           0
         NFxFlg=           0 DoJE=T BraDBF=F KetDBF=T FulRan=T
         wScrn=  0.000000 ICntrl=       500 IOpCl=  0 I1Cent=   200000004 NGrid=           0
         NMat0=    1 NMatS0=      1 NMatT0=    0 NMatD0=    1 NMtDS0=    0 NMtDT0=    0
 Petite list used in FoFCou.
 Initial guess <Sx>= 0.0000 <Sy>= 0.0000 <Sz>= 0.5000 <S**2>= 0.7500 S= 0.5000
 Requested convergence on RMS density matrix=1.00D-08 within 128 cycles.
 Requested convergence on MAX density matrix=1.00D-06.
 Requested convergence on             energy=1.00D-06.
 No special actions if energy rises.
 Inv3:  Mode=1 IEnd=    24900483.
 Iteration    1 A*A^-1 deviation from unit magnitude is 3.77D-15 for   1995.
 Iteration    1 A*A^-1 deviation from orthogonality  is 1.62D-15 for    318    127.
 Iteration    1 A^-1*A deviation from unit magnitude is 3.77D-15 for   1995.
 Iteration    1 A^-1*A deviation from orthogonality  is 1.89D-15 for   2838   2129.
 Error on total polarization charges =  0.01845
 SCF Done:  E(UM062X) =  -1202.96943599     A.U. after   14 cycles
            NFock= 14  Conv=0.54D-08     -V/T= 2.0040
 <Sx>= 0.0000 <Sy>= 0.0000 <Sz>= 0.5000 <S**2>= 0.7552 S= 0.5026
 <L.S>=  0.00000000000    
 Annihilation of the first spin contaminant:
 S**2 before annihilation     0.7552,   after     0.7500

 **********************************************************************

            Population analysis using the SCF Density.

 **********************************************************************

 Orbital symmetries:
 Alpha Orbitals:
       Occupied  (A) (A) (A) (A) (A) (A) (A) (A) (A) (A) (A) (A)
                 (A) (A) (A) (A) (A) (A) (A) (A) (A) (A) (A) (A)
                 (A) (A) (A) (A) (A) (A) (A) (A) (A) (A) (A) (A)
                 (A) (A) (A) (A) (A) (A) (A) (A) (A) (A) (A) (A)
                 (A) (A) (A) (A) (A) (A) (A) (A) (A) (A) (A) (A)
                 (A) (A) (A) (A) (A) (A) (A) (A) (A) (A) (A) (A)
                 (A) (A) (A)
       Virtual   (A) (A) (A) (A) (A) (A) (A) (A) (A) (A) (A) (A)
                 (A) (A) (A) (A) (A) (A) (A) (A) (A) (A) (A) (A)
                 (A) (A) (A) (A) (A) (A) (A) (A) (A) (A) (A) (A)
                 (A) (A) (A) (A) (A) (A) (A) (A) (A) (A) (A) (A)
                 (A) (A) (A) (A) (A) (A) (A) (A) (A) (A) (A) (A)
                 (A) (A) (A) (A) (A) (A) (A) (A) (A) (A) (A) (A)
                 (A) (A) (A) (A) (A) (A) (A) (A) (A) (A) (A) (A)
                 (A) (A) (A) (A) (A) (A) (A) (A) (A) (A) (A) (A)
                 (A) (A) (A) (A) (A) (A) (A) (A) (A) (A) (A) (A)
                 (A) (A) (A) (A) (A) (A) (A) (A) (A) (A) (A) (A)
                 (A) (A) (A) (A) (A) (A) (A) (A) (A) (A) (A) (A)
                 (A) (A) (A) (A) (A) (A) (A) (A) (A) (A) (A) (A)
                 (A) (A) (A) (A) (A) (A) (A) (A) (A) (A) (A) (A)
                 (A) (A) (A) (A) (A) (A) (A) (A) (A) (A) (A) (A)
                 (A) (A) (A) (A) (A) (A) (A) (A) (A) (A) (A) (A)
                 (A) (A) (A) (A) (A) (A) (A) (A) (A) (A) (A) (A)
                 (A) (A) (A) (A) (A) (A) (A) (A) (A) (A) (A) (A)
                 (A) (A) (A) (A) (A) (A) (A) (A) (A) (A) (A) (A)
                 (A) (A) (A) (A) (A) (A) (A) (A) (A) (A) (A) (A)
                 (A) (A) (A) (A) (A) (A) (A) (A) (A) (A) (A) (A)
                 (A) (A) (A) (A) (A) (A) (A) (A) (A) (A) (A) (A)
                 (A) (A) (A) (A) (A) (A) (A) (A) (A) (A) (A) (A)
                 (A) (A) (A) (A) (A) (A) (A) (A) (A) (A) (A) (A)
                 (A) (A) (A) (A) (A) (A) (A) (A) (A) (A) (A) (A)
                 (A) (A) (A) (A) (A) (A) (A) (A) (A) (A) (A) (A)
                 (A) (A) (A) (A) (A) (A) (A) (A) (A) (A) (A) (A)
                 (A) (A) (A) (A) (A) (A) (A) (A) (A) (A) (A) (A)
                 (A) (A) (A) (A) (A) (A) (A) (A) (A) (A) (A) (A)
                 (A) (A) (A) (A) (A) (A) (A) (A) (A) (A) (A) (A)
                 (A) (A) (A) (A) (A) (A) (A) (A) (A) (A) (A) (A)
                 (A) (A) (A) (A) (A) (A) (A) (A) (A) (A) (A) (A)
                 (A) (A) (A) (A) (A) (A) (A) (A) (A) (A) (A) (A)
                 (A) (A) (A) (A) (A) (A) (A) (A) (A) (A) (A) (A)
                 (A) (A) (A) (A) (A) (A) (A) (A) (A) (A) (A) (A)
                 (A) (A) (A) (A) (A) (A) (A) (A) (A) (A) (A) (A)
                 (A) (A) (A) (A) (A) (A) (A) (A) (A) (A) (A) (A)
                 (A) (A) (A) (A) (A) (A) (A) (A) (A) (A) (A) (A)
                 (A) (A) (A) (A) (A) (A) (A) (A) (A) (A) (A) (A)
                 (A) (A) (A) (A) (A) (A) (A) (A) (A) (A) (A) (A)
                 (A) (A) (A) (A) (A) (A) (A) (A) (A) (A) (A) (A)
                 (A) (A) (A) (A) (A) (A) (A) (A) (A) (A) (A) (A)
                 (A) (A) (A) (A) (A) (A) (A) (A) (A) (A) (A) (A)
                 (A) (A) (A) (A) (A) (A) (A) (A) (A) (A) (A) (A)
                 (A) (A) (A) (A) (A) (A) (A) (A) (A) (A) (A) (A)
                 (A) (A) (A) (A) (A) (A) (A) (A) (A) (A) (A) (A)
                 (A) (A) (A) (A) (A) (A) (A) (A) (A) (A) (A) (A)
                 (A) (A) (A) (A) (A) (A) (A) (A) (A) (A) (A) (A)
                 (A) (A) (A) (A) (A) (A) (A) (A) (A) (A) (A) (A)
                 (A) (A) (A) (A) (A) (A) (A) (A) (A) (A) (A) (A)
                 (A) (A) (A) (A) (A) (A) (A) (A) (A) (A) (A) (A)
                 (A) (A) (A) (A) (A) (A) (A) (A) (A) (A) (A) (A)
                 (A) (A) (A) (A) (A) (A) (A) (A) (A) (A) (A) (A)
                 (A) (A) (A) (A) (A) (A) (A) (A) (A) (A)
 Beta  Orbitals:
       Occupied  (A) (A) (A) (A) (A) (A) (A) (A) (A) (A) (A) (A)
                 (A) (A) (A) (A) (A) (A) (A) (A) (A) (A) (A) (A)
                 (A) (A) (A) (A) (A) (A) (A) (A) (A) (A) (A) (A)
                 (A) (A) (A) (A) (A) (A) (A) (A) (A) (A) (A) (A)
                 (A) (A) (A) (A) (A) (A) (A) (A) (A) (A) (A) (A)
                 (A) (A) (A) (A) (A) (A) (A) (A) (A) (A) (A) (A)
                 (A) (A)
       Virtual   (A) (A) (A) (A) (A) (A) (A) (A) (A) (A) (A) (A)
                 (A) (A) (A) (A) (A) (A) (A) (A) (A) (A) (A) (A)
                 (A) (A) (A) (A) (A) (A) (A) (A) (A) (A) (A) (A)
                 (A) (A) (A) (A) (A) (A) (A) (A) (A) (A) (A) (A)
                 (A) (A) (A) (A) (A) (A) (A) (A) (A) (A) (A) (A)
                 (A) (A) (A) (A) (A) (A) (A) (A) (A) (A) (A) (A)
                 (A) (A) (A) (A) (A) (A) (A) (A) (A) (A) (A) (A)
                 (A) (A) (A) (A) (A) (A) (A) (A) (A) (A) (A) (A)
                 (A) (A) (A) (A) (A) (A) (A) (A) (A) (A) (A) (A)
                 (A) (A) (A) (A) (A) (A) (A) (A) (A) (A) (A) (A)
                 (A) (A) (A) (A) (A) (A) (A) (A) (A) (A) (A) (A)
                 (A) (A) (A) (A) (A) (A) (A) (A) (A) (A) (A) (A)
                 (A) (A) (A) (A) (A) (A) (A) (A) (A) (A) (A) (A)
                 (A) (A) (A) (A) (A) (A) (A) (A) (A) (A) (A) (A)
                 (A) (A) (A) (A) (A) (A) (A) (A) (A) (A) (A) (A)
                 (A) (A) (A) (A) (A) (A) (A) (A) (A) (A) (A) (A)
                 (A) (A) (A) (A) (A) (A) (A) (A) (A) (A) (A) (A)
                 (A) (A) (A) (A) (A) (A) (A) (A) (A) (A) (A) (A)
                 (A) (A) (A) (A) (A) (A) (A) (A) (A) (A) (A) (A)
                 (A) (A) (A) (A) (A) (A) (A) (A) (A) (A) (A) (A)
                 (A) (A) (A) (A) (A) (A) (A) (A) (A) (A) (A) (A)
                 (A) (A) (A) (A) (A) (A) (A) (A) (A) (A) (A) (A)
                 (A) (A) (A) (A) (A) (A) (A) (A) (A) (A) (A) (A)
                 (A) (A) (A) (A) (A) (A) (A) (A) (A) (A) (A) (A)
                 (A) (A) (A) (A) (A) (A) (A) (A) (A) (A) (A) (A)
                 (A) (A) (A) (A) (A) (A) (A) (A) (A) (A) (A) (A)
                 (A) (A) (A) (A) (A) (A) (A) (A) (A) (A) (A) (A)
                 (A) (A) (A) (A) (A) (A) (A) (A) (A) (A) (A) (A)
                 (A) (A) (A) (A) (A) (A) (A) (A) (A) (A) (A) (A)
                 (A) (A) (A) (A) (A) (A) (A) (A) (A) (A) (A) (A)
                 (A) (A) (A) (A) (A) (A) (A) (A) (A) (A) (A) (A)
                 (A) (A) (A) (A) (A) (A) (A) (A) (A) (A) (A) (A)
                 (A) (A) (A) (A) (A) (A) (A) (A) (A) (A) (A) (A)
                 (A) (A) (A) (A) (A) (A) (A) (A) (A) (A) (A) (A)
                 (A) (A) (A) (A) (A) (A) (A) (A) (A) (A) (A) (A)
                 (A) (A) (A) (A) (A) (A) (A) (A) (A) (A) (A) (A)
                 (A) (A) (A) (A) (A) (A) (A) (A) (A) (A) (A) (A)
                 (A) (A) (A) (A) (A) (A) (A) (A) (A) (A) (A) (A)
                 (A) (A) (A) (A) (A) (A) (A) (A) (A) (A) (A) (A)
                 (A) (A) (A) (A) (A) (A) (A) (A) (A) (A) (A) (A)
                 (A) (A) (A) (A) (A) (A) (A) (A) (A) (A) (A) (A)
                 (A) (A) (A) (A) (A) (A) (A) (A) (A) (A) (A) (A)
                 (A) (A) (A) (A) (A) (A) (A) (A) (A) (A) (A) (A)
                 (A) (A) (A) (A) (A) (A) (A) (A) (A) (A) (A) (A)
                 (A) (A) (A) (A) (A) (A) (A) (A) (A) (A) (A) (A)
                 (A) (A) (A) (A) (A) (A) (A) (A) (A) (A) (A) (A)
                 (A) (A) (A) (A) (A) (A) (A) (A) (A) (A) (A) (A)
                 (A) (A) (A) (A) (A) (A) (A) (A) (A) (A) (A) (A)
                 (A) (A) (A) (A) (A) (A) (A) (A) (A) (A) (A) (A)
                 (A) (A) (A) (A) (A) (A) (A) (A) (A) (A) (A) (A)
                 (A) (A) (A) (A) (A) (A) (A) (A) (A) (A) (A) (A)
                 (A) (A) (A) (A) (A) (A) (A) (A) (A) (A) (A) (A)
                 (A) (A) (A) (A) (A) (A) (A) (A) (A) (A) (A)
 The electronic state is 2-A.
 Alpha  occ. eigenvalues --  -90.11138 -19.64029 -19.64028 -14.83106 -14.76800
 Alpha  occ. eigenvalues --  -10.64479 -10.59425 -10.58889 -10.58598 -10.58137
 Alpha  occ. eigenvalues --  -10.55887 -10.55769 -10.55436 -10.55328 -10.55058
 Alpha  occ. eigenvalues --  -10.54900 -10.53553 -10.53076 -10.52094  -8.44243
 Alpha  occ. eigenvalues --   -6.36386  -6.36288  -6.36276  -1.24449  -1.16270
 Alpha  occ. eigenvalues --   -1.13792  -1.02756  -0.96602  -0.93480  -0.89589
 Alpha  occ. eigenvalues --   -0.87039  -0.85966  -0.83343  -0.82437  -0.78590
 Alpha  occ. eigenvalues --   -0.74807  -0.70650  -0.69130  -0.67987  -0.66645
 Alpha  occ. eigenvalues --   -0.65348  -0.61264  -0.59914  -0.59396  -0.58266
 Alpha  occ. eigenvalues --   -0.57093  -0.56835  -0.54818  -0.53416  -0.52471
 Alpha  occ. eigenvalues --   -0.51804  -0.51543  -0.49946  -0.49542  -0.49039
 Alpha  occ. eigenvalues --   -0.48639  -0.47951  -0.46643  -0.44477  -0.43930
 Alpha  occ. eigenvalues --   -0.43912  -0.43573  -0.42927  -0.42036  -0.41840
 Alpha  occ. eigenvalues --   -0.40172  -0.39734  -0.39324  -0.39240  -0.38501
 Alpha  occ. eigenvalues --   -0.38218  -0.36756  -0.29975  -0.29563  -0.25172
 Alpha virt. eigenvalues --   -0.01909   0.03051   0.04902   0.05175   0.07234
 Alpha virt. eigenvalues --    0.08199   0.08423   0.08669   0.09512   0.09760
 Alpha virt. eigenvalues --    0.10344   0.11300   0.12059   0.12182   0.12938
 Alpha virt. eigenvalues --    0.13183   0.13562   0.13871   0.14144   0.14634
 Alpha virt. eigenvalues --    0.15719   0.15876   0.15984   0.16612   0.16820
 Alpha virt. eigenvalues --    0.17257   0.17802   0.18252   0.19282   0.19876
 Alpha virt. eigenvalues --    0.19941   0.20124   0.20785   0.21900   0.22040
 Alpha virt. eigenvalues --    0.22745   0.23395   0.23671   0.23881   0.24375
 Alpha virt. eigenvalues --    0.24717   0.25818   0.26455   0.26564   0.27361
 Alpha virt. eigenvalues --    0.27742   0.28059   0.29017   0.29449   0.30074
 Alpha virt. eigenvalues --    0.30427   0.31081   0.31726   0.32510   0.33339
 Alpha virt. eigenvalues --    0.33509   0.34012   0.34811   0.35300   0.35705
 Alpha virt. eigenvalues --    0.36069   0.36391   0.37521   0.37682   0.38001
 Alpha virt. eigenvalues --    0.38316   0.38925   0.39592   0.40158   0.40331
 Alpha virt. eigenvalues --    0.41506   0.41803   0.42220   0.42997   0.43174
 Alpha virt. eigenvalues --    0.43522   0.43886   0.43901   0.44630   0.45017
 Alpha virt. eigenvalues --    0.45444   0.45914   0.46135   0.46479   0.47266
 Alpha virt. eigenvalues --    0.47974   0.48292   0.48703   0.48956   0.49319
 Alpha virt. eigenvalues --    0.50294   0.50520   0.51139   0.51297   0.51576
 Alpha virt. eigenvalues --    0.51822   0.52115   0.52219   0.52527   0.52937
 Alpha virt. eigenvalues --    0.53633   0.54472   0.54681   0.54920   0.55884
 Alpha virt. eigenvalues --    0.56018   0.56406   0.57303   0.58188   0.58742
 Alpha virt. eigenvalues --    0.59285   0.60326   0.60753   0.61643   0.62162
 Alpha virt. eigenvalues --    0.62855   0.63517   0.64461   0.64656   0.65661
 Alpha virt. eigenvalues --    0.66330   0.66984   0.67836   0.69178   0.69974
 Alpha virt. eigenvalues --    0.70970   0.71537   0.72103   0.72720   0.73591
 Alpha virt. eigenvalues --    0.74201   0.74813   0.75956   0.76514   0.76863
 Alpha virt. eigenvalues --    0.77131   0.77211   0.79539   0.79751   0.80480
 Alpha virt. eigenvalues --    0.81300   0.82512   0.82832   0.84916   0.85447
 Alpha virt. eigenvalues --    0.86813   0.87302   0.87850   0.87995   0.88201
 Alpha virt. eigenvalues --    0.88856   0.89956   0.90347   0.91495   0.91860
 Alpha virt. eigenvalues --    0.93378   0.93890   0.94334   0.95513   0.95916
 Alpha virt. eigenvalues --    0.96506   0.97284   0.99053   1.00221   1.01123
 Alpha virt. eigenvalues --    1.02054   1.03165   1.03456   1.04671   1.06199
 Alpha virt. eigenvalues --    1.07358   1.07713   1.08940   1.09142   1.10446
 Alpha virt. eigenvalues --    1.10579   1.11541   1.12357   1.13011   1.13929
 Alpha virt. eigenvalues --    1.14725   1.15624   1.15953   1.16210   1.18205
 Alpha virt. eigenvalues --    1.18454   1.19919   1.21078   1.22336   1.23365
 Alpha virt. eigenvalues --    1.23518   1.24678   1.25614   1.26450   1.27259
 Alpha virt. eigenvalues --    1.27620   1.28965   1.30360   1.30581   1.31389
 Alpha virt. eigenvalues --    1.32227   1.34159   1.34452   1.35253   1.37502
 Alpha virt. eigenvalues --    1.38609   1.39754   1.41347   1.41658   1.42438
 Alpha virt. eigenvalues --    1.44653   1.45595   1.47467   1.48128   1.48613
 Alpha virt. eigenvalues --    1.49230   1.50315   1.50614   1.51564   1.52774
 Alpha virt. eigenvalues --    1.52978   1.53306   1.54601   1.55536   1.55790
 Alpha virt. eigenvalues --    1.56937   1.57088   1.57755   1.58143   1.59064
 Alpha virt. eigenvalues --    1.59706   1.60069   1.60434   1.61321   1.61414
 Alpha virt. eigenvalues --    1.62321   1.62603   1.63143   1.63405   1.64243
 Alpha virt. eigenvalues --    1.64860   1.65407   1.66092   1.66437   1.67671
 Alpha virt. eigenvalues --    1.68339   1.68913   1.69156   1.70940   1.71633
 Alpha virt. eigenvalues --    1.71891   1.72767   1.74356   1.75300   1.75772
 Alpha virt. eigenvalues --    1.76002   1.77505   1.77519   1.79737   1.80512
 Alpha virt. eigenvalues --    1.81603   1.82280   1.82713   1.83529   1.83960
 Alpha virt. eigenvalues --    1.85029   1.85846   1.86762   1.87310   1.88105
 Alpha virt. eigenvalues --    1.88569   1.89060   1.90902   1.91516   1.92778
 Alpha virt. eigenvalues --    1.93740   1.93939   1.96626   1.97681   1.98117
 Alpha virt. eigenvalues --    1.99231   1.99641   2.00783   2.00933   2.01696
 Alpha virt. eigenvalues --    2.02819   2.03759   2.06030   2.06622   2.08672
 Alpha virt. eigenvalues --    2.09547   2.10036   2.10959   2.11983   2.12840
 Alpha virt. eigenvalues --    2.13131   2.14160   2.14548   2.15463   2.16591
 Alpha virt. eigenvalues --    2.18942   2.20313   2.21526   2.22525   2.22907
 Alpha virt. eigenvalues --    2.24432   2.25734   2.26162   2.26318   2.27752
 Alpha virt. eigenvalues --    2.28183   2.30026   2.30102   2.30603   2.31913
 Alpha virt. eigenvalues --    2.32501   2.33843   2.34890   2.35383   2.36340
 Alpha virt. eigenvalues --    2.36790   2.37268   2.37712   2.39274   2.39751
 Alpha virt. eigenvalues --    2.40494   2.40801   2.41325   2.41954   2.42142
 Alpha virt. eigenvalues --    2.44140   2.44764   2.45250   2.45491   2.47567
 Alpha virt. eigenvalues --    2.48237   2.48630   2.50049   2.50443   2.50988
 Alpha virt. eigenvalues --    2.51424   2.52928   2.54167   2.55335   2.55736
 Alpha virt. eigenvalues --    2.56622   2.57489   2.58252   2.59000   2.59078
 Alpha virt. eigenvalues --    2.60185   2.60784   2.61997   2.62846   2.63862
 Alpha virt. eigenvalues --    2.64338   2.64704   2.65377   2.65622   2.66142
 Alpha virt. eigenvalues --    2.67089   2.67899   2.68250   2.68889   2.69642
 Alpha virt. eigenvalues --    2.69953   2.70226   2.71647   2.71946   2.72905
 Alpha virt. eigenvalues --    2.73805   2.75471   2.75959   2.78060   2.78720
 Alpha virt. eigenvalues --    2.78814   2.80445   2.80886   2.81700   2.82069
 Alpha virt. eigenvalues --    2.82851   2.82933   2.83782   2.85901   2.86745
 Alpha virt. eigenvalues --    2.88185   2.89060   2.89513   2.90002   2.91095
 Alpha virt. eigenvalues --    2.92160   2.95677   2.96149   2.97400   2.97717
 Alpha virt. eigenvalues --    2.98852   2.99461   2.99888   3.02747   3.03236
 Alpha virt. eigenvalues --    3.04513   3.05226   3.05661   3.05944   3.07467
 Alpha virt. eigenvalues --    3.08566   3.09036   3.09913   3.10277   3.10781
 Alpha virt. eigenvalues --    3.11253   3.11468   3.11929   3.12706   3.13658
 Alpha virt. eigenvalues --    3.14569   3.15336   3.15879   3.16067   3.17333
 Alpha virt. eigenvalues --    3.18112   3.18764   3.18981   3.19894   3.20277
 Alpha virt. eigenvalues --    3.21014   3.21389   3.22431   3.22832   3.23742
 Alpha virt. eigenvalues --    3.23992   3.24883   3.25500   3.26120   3.27061
 Alpha virt. eigenvalues --    3.27595   3.28800   3.29101   3.29749   3.30004
 Alpha virt. eigenvalues --    3.31468   3.31898   3.33152   3.34145   3.34661
 Alpha virt. eigenvalues --    3.34901   3.35714   3.36100   3.36456   3.37062
 Alpha virt. eigenvalues --    3.38212   3.38510   3.38923   3.39470   3.40463
 Alpha virt. eigenvalues --    3.40778   3.41498   3.44312   3.44762   3.45337
 Alpha virt. eigenvalues --    3.45817   3.46437   3.47754   3.48849   3.49555
 Alpha virt. eigenvalues --    3.50144   3.51834   3.52966   3.53669   3.54322
 Alpha virt. eigenvalues --    3.54959   3.55433   3.56223   3.57180   3.58024
 Alpha virt. eigenvalues --    3.58800   3.60126   3.61447   3.61792   3.62862
 Alpha virt. eigenvalues --    3.64130   3.66281   3.66788   3.68855   3.70129
 Alpha virt. eigenvalues --    3.71485   3.73076   3.74542   3.76322   3.76487
 Alpha virt. eigenvalues --    3.77384   3.78818   3.79827   3.82810   3.84292
 Alpha virt. eigenvalues --    3.86793   3.87929   3.88213   3.89021   3.90039
 Alpha virt. eigenvalues --    3.91911   3.93821   3.94771   3.95200   3.97379
 Alpha virt. eigenvalues --    3.98473   4.00086   4.01147   4.03303   4.04689
 Alpha virt. eigenvalues --    4.06396   4.07352   4.08164   4.09708   4.10376
 Alpha virt. eigenvalues --    4.11271   4.13114   4.13864   4.14258   4.15698
 Alpha virt. eigenvalues --    4.16957   4.17233   4.18778   4.19809   4.21028
 Alpha virt. eigenvalues --    4.22115   4.24269   4.25485   4.26401   4.31364
 Alpha virt. eigenvalues --    4.33051   4.33721   4.35137   4.36186   4.37652
 Alpha virt. eigenvalues --    4.39279   4.40150   4.42475   4.47569   4.48114
 Alpha virt. eigenvalues --    4.50927   4.52716   4.54301   4.54937   4.57498
 Alpha virt. eigenvalues --    4.59511   4.63060   4.64807   4.66152   4.67594
 Alpha virt. eigenvalues --    4.69661   4.71421   4.71945   4.74186   4.77041
 Alpha virt. eigenvalues --    4.79946   4.82774   4.83114   4.83784   4.89414
 Alpha virt. eigenvalues --    4.90417   4.94131   4.97139   4.97489   5.01715
 Alpha virt. eigenvalues --    5.02970   5.03939   5.07049   5.08377   5.11324
 Alpha virt. eigenvalues --    5.13585   5.14239   5.15207   5.16128   5.16152
 Alpha virt. eigenvalues --    5.17427   5.17890   5.19133   5.21435   5.22309
 Alpha virt. eigenvalues --    5.26214   5.30441   5.31701   5.34726   5.38470
 Alpha virt. eigenvalues --    5.39477   5.40033   5.44156   5.49462   5.51653
 Alpha virt. eigenvalues --    5.54340   5.57068   5.58383   5.60585   5.63672
 Alpha virt. eigenvalues --    5.65817   5.70385   5.73682   5.76270   5.88880
 Alpha virt. eigenvalues --    6.08543   6.26370   6.28785   6.29752   6.40449
 Alpha virt. eigenvalues --    6.45093   6.70839   6.73005   6.77083   6.78162
 Alpha virt. eigenvalues --    6.86914   6.90610   9.56045   9.64606   9.67482
 Alpha virt. eigenvalues --   22.07804  22.37321  22.38241  22.42642  22.46007
 Alpha virt. eigenvalues --   22.54751  22.55441  22.59284  22.62613  22.68766
 Alpha virt. eigenvalues --   22.73511  22.95421  23.00595  23.49844  23.60496
 Alpha virt. eigenvalues --   32.58291  33.09550  43.92887  43.94411
  Beta  occ. eigenvalues --  -90.11127 -19.64028 -19.64023 -14.83104 -14.76800
  Beta  occ. eigenvalues --  -10.64470 -10.59424 -10.58889 -10.58494 -10.58137
  Beta  occ. eigenvalues --  -10.55887 -10.55833 -10.55436 -10.55328 -10.54900
  Beta  occ. eigenvalues --  -10.54363 -10.53614 -10.53045 -10.52092  -8.44237
  Beta  occ. eigenvalues --   -6.36383  -6.36273  -6.36265  -1.24430  -1.16263
  Beta  occ. eigenvalues --   -1.13782  -1.02754  -0.96596  -0.92626  -0.89153
  Beta  occ. eigenvalues --   -0.86958  -0.85889  -0.82961  -0.81949  -0.78352
  Beta  occ. eigenvalues --   -0.74505  -0.70535  -0.68961  -0.67644  -0.66572
  Beta  occ. eigenvalues --   -0.63884  -0.61095  -0.59864  -0.59286  -0.58209
  Beta  occ. eigenvalues --   -0.56997  -0.56641  -0.54385  -0.53118  -0.52450
  Beta  occ. eigenvalues --   -0.51789  -0.51542  -0.49642  -0.49452  -0.48731
  Beta  occ. eigenvalues --   -0.47998  -0.46938  -0.46300  -0.44221  -0.43885
  Beta  occ. eigenvalues --   -0.43776  -0.43557  -0.42847  -0.41875  -0.41738
  Beta  occ. eigenvalues --   -0.40085  -0.39451  -0.39121  -0.38994  -0.38277
  Beta  occ. eigenvalues --   -0.38206  -0.36650  -0.29970  -0.29563
  Beta virt. eigenvalues --   -0.02109  -0.01811   0.03053   0.04911   0.05181
  Beta virt. eigenvalues --    0.06737   0.08181   0.08307   0.08684   0.09285
  Beta virt. eigenvalues --    0.09587   0.10342   0.10736   0.12032   0.12117
  Beta virt. eigenvalues --    0.12807   0.13164   0.13383   0.13883   0.14093
  Beta virt. eigenvalues --    0.14607   0.15698   0.15885   0.15986   0.16586
  Beta virt. eigenvalues --    0.16800   0.17265   0.17689   0.18123   0.19269
  Beta virt. eigenvalues --    0.19688   0.19846   0.20098   0.20703   0.21473
  Beta virt. eigenvalues --    0.21933   0.22734   0.23360   0.23634   0.23849
  Beta virt. eigenvalues --    0.24195   0.24686   0.25546   0.26163   0.26592
  Beta virt. eigenvalues --    0.27371   0.27764   0.28348   0.29035   0.29387
  Beta virt. eigenvalues --    0.29665   0.30320   0.30944   0.31705   0.32392
  Beta virt. eigenvalues --    0.33250   0.33476   0.33772   0.34838   0.35382
  Beta virt. eigenvalues --    0.35830   0.35968   0.36169   0.37339   0.37564
  Beta virt. eigenvalues --    0.37978   0.38408   0.38822   0.39537   0.40122
  Beta virt. eigenvalues --    0.40327   0.41483   0.41825   0.42258   0.42960
  Beta virt. eigenvalues --    0.43064   0.43196   0.43722   0.44043   0.44644
  Beta virt. eigenvalues --    0.45123   0.45422   0.45864   0.46200   0.46433
  Beta virt. eigenvalues --    0.47191   0.47909   0.48297   0.48613   0.48941
  Beta virt. eigenvalues --    0.49328   0.50233   0.50257   0.51081   0.51353
  Beta virt. eigenvalues --    0.51444   0.51823   0.52092   0.52235   0.52580
  Beta virt. eigenvalues --    0.52919   0.53875   0.54500   0.54622   0.54970
  Beta virt. eigenvalues --    0.55925   0.56153   0.56254   0.57600   0.58315
  Beta virt. eigenvalues --    0.58672   0.59156   0.60290   0.60771   0.61744
  Beta virt. eigenvalues --    0.62044   0.62618   0.63494   0.64415   0.64644
  Beta virt. eigenvalues --    0.65568   0.66302   0.66719   0.67838   0.69155
  Beta virt. eigenvalues --    0.69915   0.70973   0.71527   0.72174   0.72684
  Beta virt. eigenvalues --    0.73620   0.74206   0.74892   0.75827   0.76538
  Beta virt. eigenvalues --    0.76931   0.77036   0.77341   0.79463   0.79758
  Beta virt. eigenvalues --    0.80433   0.81264   0.82693   0.82938   0.84931
  Beta virt. eigenvalues --    0.85487   0.86772   0.87250   0.87869   0.87948
  Beta virt. eigenvalues --    0.88154   0.88857   0.90022   0.90333   0.91569
  Beta virt. eigenvalues --    0.91902   0.93381   0.93917   0.94457   0.95692
  Beta virt. eigenvalues --    0.95942   0.96592   0.97437   0.99109   1.00238
  Beta virt. eigenvalues --    1.01135   1.02094   1.03152   1.03479   1.04737
  Beta virt. eigenvalues --    1.06293   1.07474   1.07685   1.08959   1.09171
  Beta virt. eigenvalues --    1.10562   1.10677   1.11616   1.12416   1.13019
  Beta virt. eigenvalues --    1.13939   1.14812   1.15740   1.15982   1.16259
  Beta virt. eigenvalues --    1.18410   1.18599   1.19881   1.21148   1.22344
  Beta virt. eigenvalues --    1.23351   1.23673   1.24933   1.25725   1.26444
  Beta virt. eigenvalues --    1.27321   1.27635   1.28998   1.30534   1.30806
  Beta virt. eigenvalues --    1.31377   1.32212   1.34403   1.34597   1.35604
  Beta virt. eigenvalues --    1.37719   1.38672   1.39786   1.41411   1.41669
  Beta virt. eigenvalues --    1.42453   1.44766   1.45631   1.47487   1.48190
  Beta virt. eigenvalues --    1.48851   1.49252   1.50335   1.50756   1.51750
  Beta virt. eigenvalues --    1.52859   1.53180   1.53751   1.55217   1.55616
  Beta virt. eigenvalues --    1.56503   1.57092   1.57417   1.57804   1.58376
  Beta virt. eigenvalues --    1.59158   1.59844   1.60167   1.60697   1.61362
  Beta virt. eigenvalues --    1.61461   1.62319   1.62653   1.63191   1.63696
  Beta virt. eigenvalues --    1.64328   1.65011   1.65749   1.66448   1.66700
  Beta virt. eigenvalues --    1.68021   1.68433   1.68993   1.69238   1.70965
  Beta virt. eigenvalues --    1.71735   1.71963   1.72855   1.74384   1.75340
  Beta virt. eigenvalues --    1.76018   1.76340   1.77546   1.77671   1.80114
  Beta virt. eigenvalues --    1.80812   1.81911   1.82689   1.82747   1.83725
  Beta virt. eigenvalues --    1.84086   1.85202   1.86009   1.86993   1.87374
  Beta virt. eigenvalues --    1.88122   1.88586   1.89228   1.91075   1.91810
  Beta virt. eigenvalues --    1.93009   1.93769   1.94080   1.96792   1.97832
  Beta virt. eigenvalues --    1.98203   1.99246   1.99685   2.00904   2.01064
  Beta virt. eigenvalues --    2.01855   2.03089   2.03802   2.06283   2.06668
  Beta virt. eigenvalues --    2.08842   2.09629   2.10181   2.11053   2.12032
  Beta virt. eigenvalues --    2.13017   2.13390   2.14628   2.14713   2.15879
  Beta virt. eigenvalues --    2.16877   2.19082   2.20441   2.21861   2.22819
  Beta virt. eigenvalues --    2.23180   2.24769   2.25852   2.26332   2.26634
  Beta virt. eigenvalues --    2.28128   2.28579   2.30135   2.30395   2.30777
  Beta virt. eigenvalues --    2.32271   2.32710   2.34024   2.34970   2.35434
  Beta virt. eigenvalues --    2.36399   2.36902   2.37404   2.38010   2.39293
  Beta virt. eigenvalues --    2.39823   2.40563   2.40906   2.41377   2.42231
  Beta virt. eigenvalues --    2.42385   2.44285   2.44902   2.45511   2.45563
  Beta virt. eigenvalues --    2.47799   2.48505   2.48671   2.50091   2.50530
  Beta virt. eigenvalues --    2.51230   2.51644   2.53000   2.54288   2.55406
  Beta virt. eigenvalues --    2.55848   2.56733   2.57814   2.58494   2.59080
  Beta virt. eigenvalues --    2.59386   2.60388   2.61128   2.62004   2.62858
  Beta virt. eigenvalues --    2.63976   2.64560   2.64870   2.65410   2.66012
  Beta virt. eigenvalues --    2.66502   2.67156   2.68231   2.68303   2.68945
  Beta virt. eigenvalues --    2.69832   2.70096   2.70387   2.71725   2.72273
  Beta virt. eigenvalues --    2.73168   2.74059   2.75480   2.76271   2.78083
  Beta virt. eigenvalues --    2.78831   2.79163   2.80619   2.81641   2.82165
  Beta virt. eigenvalues --    2.82417   2.82956   2.83414   2.84207   2.86426
  Beta virt. eigenvalues --    2.86925   2.88432   2.89232   2.90153   2.90413
  Beta virt. eigenvalues --    2.91183   2.92602   2.95747   2.96369   2.97778
  Beta virt. eigenvalues --    2.98439   2.99402   2.99794   3.01586   3.03416
  Beta virt. eigenvalues --    3.04383   3.04857   3.05702   3.06374   3.06553
  Beta virt. eigenvalues --    3.07669   3.08874   3.09165   3.10224   3.10456
  Beta virt. eigenvalues --    3.11056   3.11726   3.12220   3.12603   3.12930
  Beta virt. eigenvalues --    3.14450   3.14639   3.15620   3.15994   3.17032
  Beta virt. eigenvalues --    3.17583   3.18240   3.19035   3.19533   3.20092
  Beta virt. eigenvalues --    3.20924   3.21308   3.21598   3.22956   3.23557
  Beta virt. eigenvalues --    3.23793   3.24098   3.25457   3.25948   3.26242
  Beta virt. eigenvalues --    3.27509   3.27942   3.29000   3.29352   3.30000
  Beta virt. eigenvalues --    3.30350   3.32360   3.32439   3.33555   3.34763
  Beta virt. eigenvalues --    3.35101   3.35733   3.36029   3.36331   3.36708
  Beta virt. eigenvalues --    3.37329   3.38663   3.38742   3.39588   3.40157
  Beta virt. eigenvalues --    3.40722   3.41221   3.42279   3.44448   3.45114
  Beta virt. eigenvalues --    3.45796   3.45992   3.46935   3.48123   3.49011
  Beta virt. eigenvalues --    3.50011   3.50719   3.52725   3.53458   3.53956
  Beta virt. eigenvalues --    3.54453   3.55098   3.55864   3.56343   3.57343
  Beta virt. eigenvalues --    3.58895   3.59350   3.60458   3.61544   3.61952
  Beta virt. eigenvalues --    3.63242   3.65488   3.66697   3.67468   3.68916
  Beta virt. eigenvalues --    3.70301   3.71572   3.73883   3.75285   3.76339
  Beta virt. eigenvalues --    3.76594   3.78218   3.79857   3.81261   3.82978
  Beta virt. eigenvalues --    3.84653   3.87392   3.88129   3.88780   3.89495
  Beta virt. eigenvalues --    3.90072   3.92528   3.94006   3.95095   3.95544
  Beta virt. eigenvalues --    3.97511   3.99905   4.00493   4.01752   4.03437
  Beta virt. eigenvalues --    4.04896   4.06470   4.07472   4.08720   4.10065
  Beta virt. eigenvalues --    4.11161   4.12219   4.13254   4.13923   4.14497
  Beta virt. eigenvalues --    4.15837   4.17248   4.18315   4.19143   4.20137
  Beta virt. eigenvalues --    4.21694   4.22402   4.24367   4.25533   4.26486
  Beta virt. eigenvalues --    4.32051   4.33238   4.33933   4.35196   4.36524
  Beta virt. eigenvalues --    4.37737   4.39312   4.41448   4.43084   4.47698
  Beta virt. eigenvalues --    4.49642   4.51790   4.52718   4.54326   4.55736
  Beta virt. eigenvalues --    4.58167   4.61003   4.63165   4.65891   4.67571
  Beta virt. eigenvalues --    4.68006   4.69681   4.71465   4.71996   4.75957
  Beta virt. eigenvalues --    4.77763   4.80310   4.83084   4.83717   4.83982
  Beta virt. eigenvalues --    4.89450   4.90494   4.96909   4.97360   4.99184
  Beta virt. eigenvalues --    5.02973   5.03698   5.05973   5.07664   5.08439
  Beta virt. eigenvalues --    5.11327   5.13592   5.14246   5.15218   5.16136
  Beta virt. eigenvalues --    5.16168   5.17443   5.17903   5.19149   5.21450
  Beta virt. eigenvalues --    5.22312   5.26223   5.30469   5.31703   5.34730
  Beta virt. eigenvalues --    5.38481   5.39486   5.40037   5.44165   5.49467
  Beta virt. eigenvalues --    5.51658   5.54355   5.57073   5.58387   5.60588
  Beta virt. eigenvalues --    5.63677   5.65826   5.70393   5.73694   5.76280
  Beta virt. eigenvalues --    5.88888   6.08549   6.26382   6.28796   6.29760
  Beta virt. eigenvalues --    6.40463   6.45106   6.70846   6.73009   6.77086
  Beta virt. eigenvalues --    6.78169   6.86917   6.90612   9.56091   9.64742
  Beta virt. eigenvalues --    9.67507  22.07853  22.37442  22.38741  22.42735
  Beta virt. eigenvalues --   22.46312  22.54833  22.55451  22.59514  22.62812
  Beta virt. eigenvalues --   22.68767  22.73511  22.95425  23.00596  23.49856
  Beta virt. eigenvalues --   23.60497  32.58291  33.09551  43.92885  43.94410
          Condensed to atoms (all electrons):
               1          2          3          4          5          6
     1  C    5.115102   0.340723   0.094609  -0.136231   0.000770   0.495839
     2  C    0.340723   5.038408   0.264398   0.099242  -0.087277  -0.015696
     3  C    0.094609   0.264398   5.357486   0.181749  -0.002425  -0.122908
     4  C   -0.136231   0.099242   0.181749   5.318590   0.457600   0.022908
     5  C    0.000770  -0.087277  -0.002425   0.457600   4.952504   0.458057
     6  C    0.495839  -0.015696  -0.122908   0.022908   0.458057   4.970901
     7  H    0.420330  -0.055202   0.021480  -0.006142   0.008342  -0.038141
     8  H    0.001747  -0.000887  -0.012580   0.375821   0.002839  -0.000592
     9  H    0.004872  -0.000679   0.009168  -0.041621   0.422502  -0.036214
    10  H   -0.046131   0.011838  -0.003011   0.009386  -0.044027   0.428895
    11  N    0.013737  -0.108593   0.444910  -0.060685   0.003548  -0.001140
    12  N   -0.050720   0.519800  -0.114420   0.031605  -0.005136   0.008051
    13  C   -0.007554  -0.154690  -0.181903   0.005150   0.000047  -0.001762
    14  C    0.000341   0.011971  -0.045961  -0.013805   0.001184  -0.000375
    15  H    0.000020  -0.000830   0.009349   0.000448   0.000011   0.000001
    16  H   -0.000154  -0.001600   0.000636   0.002505  -0.000344   0.000048
    17  H    0.000270   0.002275  -0.021303  -0.005231   0.001749  -0.000273
    18  S   -0.000302   0.000349   0.006320  -0.000663   0.000048  -0.000022
    19  O    0.000045  -0.000590  -0.001404  -0.000015   0.000003  -0.000006
    20  O    0.000037  -0.000421  -0.002307  -0.000089   0.000003  -0.000005
    21  C   -0.000151  -0.003276   0.001385   0.000044   0.000003  -0.000008
    22  C    0.000021   0.000410  -0.000037  -0.000009   0.000001  -0.000001
    23  H    0.000030   0.000203  -0.000012  -0.000020   0.000003  -0.000007
    24  H    0.000065   0.000708   0.000105  -0.000021   0.000004  -0.000009
    25  C   -0.000002  -0.000014   0.000013   0.000000  -0.000000   0.000000
    26  H   -0.000000  -0.000005   0.000009   0.000000  -0.000000   0.000000
    27  H   -0.000000  -0.000004   0.000005   0.000000  -0.000000   0.000000
    28  C    0.000000  -0.000005  -0.000001   0.000000  -0.000000   0.000000
    29  H    0.000000  -0.000000  -0.000000  -0.000000   0.000000  -0.000000
    30  H   -0.000000   0.000003  -0.000000  -0.000000   0.000000  -0.000000
    31  H    0.000000   0.000001   0.000000  -0.000000   0.000000  -0.000000
    32  C    0.000000  -0.000000   0.000000   0.000000  -0.000000   0.000000
    33  C    0.000000   0.000000  -0.000000  -0.000000   0.000000  -0.000000
    34  H    0.000000   0.000000  -0.000000  -0.000000   0.000000  -0.000000
    35  H   -0.000000  -0.000000  -0.000000   0.000000  -0.000000   0.000000
    36  H    0.000000  -0.000000   0.000000   0.000000  -0.000000   0.000000
    37  H   -0.000000  -0.000000   0.000000   0.000000  -0.000000   0.000000
    38  H    0.000000   0.000000  -0.000000  -0.000000   0.000000  -0.000000
               7          8          9         10         11         12
     1  C    0.420330   0.001747   0.004872  -0.046131   0.013737  -0.050720
     2  C   -0.055202  -0.000887  -0.000679   0.011838  -0.108593   0.519800
     3  C    0.021480  -0.012580   0.009168  -0.003011   0.444910  -0.114420
     4  C   -0.006142   0.375821  -0.041621   0.009386  -0.060685   0.031605
     5  C    0.008342   0.002839   0.422502  -0.044027   0.003548  -0.005136
     6  C   -0.038141  -0.000592  -0.036214   0.428895  -0.001140   0.008051
     7  H    0.482309   0.000035  -0.000144  -0.004922   0.000194   0.003026
     8  H    0.000035   0.443748  -0.003178  -0.000178   0.001190  -0.000083
     9  H   -0.000144  -0.003178   0.479010  -0.003802  -0.000080   0.000003
    10  H   -0.004922  -0.000178  -0.003802   0.484292   0.000004  -0.000085
    11  N    0.000194   0.001190  -0.000080   0.000004   6.301780  -0.105733
    12  N    0.003026  -0.000083   0.000003  -0.000085  -0.105733   6.579137
    13  C   -0.000572   0.000024   0.000049   0.000061   0.474764   0.482764
    14  C    0.000030  -0.000964   0.000010  -0.000003   0.264658   0.001186
    15  H   -0.000001   0.000068  -0.000000   0.000000  -0.026918   0.000611
    16  H   -0.000000  -0.000018  -0.000003   0.000000  -0.042283   0.000518
    17  H    0.000002  -0.002339   0.000015  -0.000001  -0.017987  -0.000520
    18  S   -0.000005   0.000007  -0.000000  -0.000000  -0.031402  -0.032703
    19  O    0.000001  -0.000001   0.000000   0.000000  -0.002549   0.000590
    20  O    0.000001  -0.000005   0.000000   0.000000  -0.004606   0.000601
    21  C    0.000014  -0.000001   0.000000   0.000000   0.001010  -0.005138
    22  C    0.000007   0.000000  -0.000000  -0.000000   0.000035   0.004401
    23  H    0.000023   0.000000   0.000000  -0.000000   0.000070   0.003465
    24  H    0.000035   0.000000   0.000000  -0.000000   0.000213   0.005262
    25  C   -0.000000   0.000000   0.000000   0.000000   0.000010  -0.000246
    26  H   -0.000000   0.000000  -0.000000  -0.000000  -0.000003  -0.000172
    27  H   -0.000000   0.000000  -0.000000  -0.000000  -0.000007  -0.000149
    28  C   -0.000000  -0.000000   0.000000   0.000000   0.000000  -0.000104
[...]
     9  H(1)               0.00001       0.02593       0.00925       0.00865
    10  H(1)               0.00000       0.00037       0.00013       0.00012
    11  N(14)              0.00170       0.55006       0.19627       0.18348
    12  N(14)              0.00006       0.01874       0.00669       0.00625
    13  C(13)              0.00647       7.27871       2.59722       2.42791
    14  C(13)             -0.00002      -0.01883      -0.00672      -0.00628
    15  H(1)              -0.00000      -0.00119      -0.00043      -0.00040
    16  H(1)              -0.00000      -0.01804      -0.00644      -0.00602
    17  H(1)              -0.00000      -0.01305      -0.00466      -0.00435
    18  S(33)              0.02080       7.14253       2.54863       2.38249
    19  O(17)              0.00026      -0.15501      -0.05531      -0.05171
    20  O(17)              0.00100      -0.60802      -0.21696      -0.20281
    21  C(13)              0.08395      94.37196      33.67426      31.47910
    22  C(13)             -0.02886     -32.44739     -11.57804     -10.82329
    23  H(1)              -0.00072      -3.22224      -1.14978      -1.07482
    24  H(1)              -0.00068      -3.02256      -1.07853      -1.00822
    25  C(13)              0.18127     203.77958      72.71362      67.97355
    26  H(1)               0.00916      40.93330      14.60602      13.65388
    27  H(1)               0.00337      15.06831       5.37675       5.02625
    28  C(13)             -0.03076     -34.58326     -12.34017     -11.53573
    29  H(1)              -0.01509     -67.45455     -24.06946     -22.50041
    30  H(1)               0.02579     115.26552      41.12960      38.44844
    31  H(1)               0.00518      23.15109       8.26088       7.72237
    32  C(13)              0.02294      25.78801       9.20180       8.60195
    33  C(13)             -0.00044      -0.49275      -0.17582      -0.16436
    34  H(1)              -0.00040      -1.77044      -0.63174      -0.59055
    35  H(1)              -0.00044      -1.94728      -0.69484      -0.64954
    36  H(1)              -0.00007      -0.32998      -0.11774      -0.11007
    37  H(1)               0.00017       0.76438       0.27275       0.25497
    38  H(1)               0.00008       0.34976       0.12480       0.11667
 --------------------------------------------------------
       Center         ----  Spin Dipole Couplings  ----
                      3XX-RR        3YY-RR        3ZZ-RR
 --------------------------------------------------------
     1   Atom        0.000569     -0.000146     -0.000423
     2   Atom        0.000903     -0.000324     -0.000579
     3   Atom        0.000940     -0.000253     -0.000686
     4   Atom        0.000619     -0.000318     -0.000300
     5   Atom        0.000391     -0.000103     -0.000288
     6   Atom        0.000357     -0.000125     -0.000232
     7   Atom        0.000466     -0.000078     -0.000388
     8   Atom        0.000385     -0.000195     -0.000190
     9   Atom        0.000241     -0.000110     -0.000132
    10   Atom        0.000249     -0.000081     -0.000169
    11   Atom        0.003224     -0.001566     -0.001658
    12   Atom        0.002416     -0.000446     -0.001970
    13   Atom        0.004230     -0.000886     -0.003344
    14   Atom        0.000710     -0.000290     -0.000420
    15   Atom        0.000696     -0.000139     -0.000557
    16   Atom        0.000524     -0.000285     -0.000239
    17   Atom        0.000509     -0.000210     -0.000299
    18   Atom       -0.001474      0.018552     -0.017079
    19   Atom        0.004644     -0.002121     -0.002523
    20   Atom        0.007642     -0.002418     -0.005225
    21   Atom        0.040892     -0.010918     -0.029975
    22   Atom        0.006018     -0.000196     -0.005821
    23   Atom        0.005334     -0.002544     -0.002790
    24   Atom        0.009320     -0.005586     -0.003734
    25   Atom        0.249907      0.222345     -0.472252
    26   Atom       -0.000311      0.000816     -0.000505
    27   Atom        0.002936      0.006027     -0.008963
    28   Atom       -0.002942      0.008413     -0.005470
    29   Atom       -0.026076     -0.036631      0.062707
    30   Atom       -0.007456      0.010153     -0.002697
    31   Atom       -0.007412     -0.006320      0.013732
    32   Atom        0.012508      0.002462     -0.014971
    33   Atom       -0.001266      0.003862     -0.002596
    34   Atom        0.002988      0.001936     -0.004924
    35   Atom        0.010751     -0.004533     -0.006218
    36   Atom        0.001289     -0.000034     -0.001255
    37   Atom        0.000068      0.001501     -0.001569
    38   Atom       -0.000218     -0.000757      0.000974
 --------------------------------------------------------
                        XY            XZ            YZ
 --------------------------------------------------------
     1   Atom       -0.000379     -0.000050     -0.000025
     2   Atom       -0.000407     -0.000096      0.000006
     3   Atom       -0.000430     -0.000226      0.000026
     4   Atom       -0.000111     -0.000102      0.000016
     5   Atom       -0.000143     -0.000065     -0.000042
     6   Atom       -0.000213     -0.000038      0.000004
     7   Atom       -0.000489      0.000006     -0.000006
     8   Atom        0.000021     -0.000097     -0.000006
     9   Atom       -0.000080     -0.000040      0.000006
    10   Atom       -0.000187     -0.000017      0.000007
    11   Atom        0.000462     -0.001247     -0.000182
    12   Atom       -0.000916     -0.000279     -0.000181
    13   Atom       -0.004023     -0.000254      0.000143
    14   Atom        0.000445     -0.000273     -0.000141
    15   Atom        0.000664     -0.000181     -0.000104
    16   Atom        0.000327     -0.000396     -0.000168
    17   Atom        0.000265     -0.000122     -0.000040
    18   Atom        0.033158     -0.008493     -0.011422
    19   Atom        0.005106     -0.001656     -0.000512
    20   Atom        0.009611     -0.003565     -0.001921
    21   Atom       -0.037230     -0.009140      0.004113
    22   Atom        0.005744     -0.002282     -0.002979
    23   Atom       -0.003818     -0.007013      0.004955
    24   Atom       -0.003100      0.005813     -0.004091
    25   Atom       -0.777139      0.215036     -0.214926
    26   Atom        0.009190     -0.009420     -0.009159
    27   Atom        0.012754      0.003963      0.002826
    28   Atom       -0.005656      0.002722      0.006525
    29   Atom       -0.026898     -0.028002     -0.025620
    30   Atom       -0.000488      0.001440      0.010925
    31   Atom        0.000697      0.003298      0.008976
    32   Atom        0.020471      0.000198      0.001160
    33   Atom        0.002748      0.001970      0.003449
    34   Atom        0.008097     -0.001942     -0.001879
    35   Atom        0.003039      0.005302      0.002366
    36   Atom        0.001780      0.000958      0.000924
    37   Atom        0.002039      0.001418      0.001851
    38   Atom        0.001439      0.002222      0.001822
 --------------------------------------------------------


 ---------------------------------------------------------------------------------
              Anisotropic Spin Dipole Couplings in Principal Axis System
 ---------------------------------------------------------------------------------

       Atom             a.u.   MegaHertz   Gauss  10(-4) cm-1        Axes

              Baa    -0.0004    -0.059    -0.021    -0.020  0.1521  0.2782  0.9484
     1 C(13)  Bbb    -0.0003    -0.040    -0.014    -0.013  0.3658  0.8756 -0.3155
              Bcc     0.0007     0.098     0.035     0.033  0.9182 -0.3949 -0.0314
 
              Baa    -0.0006    -0.079    -0.028    -0.026  0.0996  0.1323  0.9862
     2 C(13)  Bbb    -0.0004    -0.060    -0.021    -0.020  0.2755  0.9487 -0.1551
              Bcc     0.0010     0.138     0.049     0.046  0.9561 -0.2871 -0.0580
 
              Baa    -0.0007    -0.097    -0.034    -0.032  0.1570  0.0895  0.9835
     3 C(13)  Bbb    -0.0004    -0.052    -0.018    -0.017  0.2853  0.9493 -0.1319
              Bcc     0.0011     0.148     0.053     0.050  0.9455 -0.3013 -0.1236
 
              Baa    -0.0003    -0.045    -0.016    -0.015  0.0952  0.9794 -0.1783
     4 C(13)  Bbb    -0.0003    -0.042    -0.015    -0.014  0.1266  0.1657  0.9780
              Bcc     0.0006     0.086     0.031     0.029  0.9874 -0.1157 -0.1083
 
              Baa    -0.0003    -0.042    -0.015    -0.014  0.1474  0.2938  0.9444
     5 C(13)  Bbb    -0.0001    -0.016    -0.006    -0.005  0.2171  0.9220 -0.3207
              Bcc     0.0004     0.058     0.021     0.019  0.9650 -0.2523 -0.0721
 
              Baa    -0.0002    -0.032    -0.011    -0.011  0.1544  0.2618  0.9527
     6 C(13)  Bbb    -0.0002    -0.027    -0.010    -0.009  0.3224  0.8981 -0.2991
              Bcc     0.0004     0.059     0.021     0.020  0.9339 -0.3533 -0.0543
 
              Baa    -0.0004    -0.207    -0.074    -0.069  0.0424  0.0868  0.9953
     7 H(1)   Bbb    -0.0004    -0.195    -0.070    -0.065  0.5054  0.8575 -0.0963
              Bcc     0.0008     0.402     0.143     0.134  0.8618 -0.5071  0.0075
 
              Baa    -0.0002    -0.110    -0.039    -0.037  0.1516  0.2024  0.9675
     8 H(1)   Bbb    -0.0002    -0.104    -0.037    -0.035 -0.0683  0.9786 -0.1941
              Bcc     0.0004     0.214     0.077     0.072  0.9861  0.0366 -0.1622
 
              Baa    -0.0001    -0.073    -0.026    -0.024  0.1553  0.2540  0.9547
     9 H(1)   Bbb    -0.0001    -0.067    -0.024    -0.022  0.1757  0.9439 -0.2797
              Bcc     0.0003     0.140     0.050     0.047  0.9721 -0.2112 -0.1020
 
              Baa    -0.0002    -0.090    -0.032    -0.030  0.0508  0.0244  0.9984
    10 H(1)   Bbb    -0.0002    -0.088    -0.031    -0.029  0.4099  0.9111 -0.0431
              Bcc     0.0003     0.178     0.064     0.059  0.9107 -0.4115 -0.0363
 
              Baa    -0.0020    -0.076    -0.027    -0.025  0.2135  0.1870  0.9589
    11 N(14)  Bbb    -0.0016    -0.062    -0.022    -0.021 -0.1352  0.9777 -0.1605
              Bcc     0.0036     0.138     0.049     0.046  0.9675  0.0953 -0.2341
 
              Baa    -0.0020    -0.078    -0.028    -0.026  0.0962  0.1678  0.9811
    12 N(14)  Bbb    -0.0007    -0.026    -0.009    -0.009  0.2642  0.9460 -0.1877
              Bcc     0.0027     0.104     0.037     0.035  0.9597 -0.2773 -0.0467
 
              Baa    -0.0034    -0.450    -0.161    -0.150  0.0198 -0.0258  0.9995
    13 C(13)  Bbb    -0.0031    -0.415    -0.148    -0.139  0.4817  0.8762  0.0131
              Bcc     0.0064     0.865     0.309     0.289  0.8761 -0.4812 -0.0297
 
              Baa    -0.0005    -0.069    -0.024    -0.023 -0.0286  0.5788  0.8150
    14 C(13)  Bbb    -0.0004    -0.059    -0.021    -0.020 -0.4132  0.7355 -0.5369
              Bcc     0.0009     0.127     0.045     0.042  0.9102  0.3521 -0.2181
 
              Baa    -0.0006    -0.312    -0.111    -0.104  0.0888  0.0997  0.9911
    15 H(1)   Bbb    -0.0005    -0.270    -0.096    -0.090 -0.4880  0.8717 -0.0439
              Bcc     0.0011     0.581     0.207     0.194  0.8683  0.4798 -0.1260
 
              Baa    -0.0004    -0.231    -0.082    -0.077  0.0749  0.6730  0.7358
    16 H(1)   Bbb    -0.0004    -0.204    -0.073    -0.068 -0.4868  0.6687 -0.5620
              Bcc     0.0008     0.435     0.155     0.145  0.8703  0.3161 -0.3777
 
              Baa    -0.0003    -0.169    -0.060    -0.056  0.1315  0.0453  0.9903
    17 H(1)   Bbb    -0.0003    -0.158    -0.057    -0.053 -0.3122  0.9500 -0.0020
              Bcc     0.0006     0.328     0.117     0.109  0.9409  0.3089 -0.1390
 
              Baa    -0.0261    -1.070    -0.382    -0.357  0.8030 -0.5960  0.0014
    18 S(33)  Bbb    -0.0203    -0.831    -0.297    -0.277  0.1294  0.1766  0.9757
              Bcc     0.0464     1.901     0.678     0.634  0.5818  0.7833 -0.2189
 
              Baa    -0.0049     0.356     0.127     0.119 -0.4861  0.8605 -0.1525
    19 O(17)  Bbb    -0.0028     0.199     0.071     0.067  0.0712  0.2129  0.9745
              Bcc     0.0077    -0.555    -0.198    -0.185  0.8710  0.4628 -0.1647
 
              Baa    -0.0083     0.597     0.213     0.199 -0.5298  0.8435 -0.0885
    20 O(17)  Bbb    -0.0060     0.437     0.156     0.146  0.1264  0.1817  0.9752
              Bcc     0.0143    -1.035    -0.369    -0.345  0.8386  0.5055 -0.2029
 
              Baa    -0.0314    -4.214    -1.504    -1.405  0.3117  0.3928  0.8652
    21 C(13)  Bbb    -0.0300    -4.031    -1.438    -1.345  0.3550  0.7965 -0.4895
              Bcc     0.0614     8.244     2.942     2.750  0.8814 -0.4597 -0.1088
 
              Baa    -0.0071    -0.954    -0.340    -0.318 -0.0211  0.4104  0.9117
    22 C(13)  Bbb    -0.0031    -0.415    -0.148    -0.139 -0.5606  0.7502 -0.3507
              Bcc     0.0102     1.370     0.489     0.457  0.8278  0.5185 -0.2142
 
              Baa    -0.0083    -4.431    -1.581    -1.478  0.2724 -0.5173  0.8113
    23 H(1)   Bbb    -0.0035    -1.846    -0.659    -0.616  0.5697  0.7662  0.2973
              Bcc     0.0118     6.277     2.240     2.094  0.7754 -0.3812 -0.5034
 
              Baa    -0.0090    -4.783    -1.707    -1.595 -0.0898  0.7335  0.6737
    24 H(1)   Bbb    -0.0036    -1.939    -0.692    -0.647  0.4373  0.6368 -0.6350
              Bcc     0.0126     6.722     2.399     2.242  0.8948 -0.2376  0.3780
 
              Baa    -0.5418   -72.706   -25.943   -24.252  0.6429  0.7241  0.2499
    25 C(13)  Bbb    -0.5314   -71.306   -25.444   -23.785 -0.3116 -0.0508  0.9488
              Bcc     1.0732   144.012    51.387    48.037  0.6997 -0.6879  0.1930
 
              Baa    -0.0098    -5.245    -1.871    -1.749  0.6904  0.0261  0.7230
    26 H(1)   Bbb    -0.0087    -4.637    -1.655    -1.547 -0.4422  0.8062  0.3932
              Bcc     0.0185     9.882     3.526     3.296  0.5726  0.5911 -0.5681
 
              Baa    -0.0104    -5.533    -1.974    -1.846 -0.4528  0.2025  0.8683
    27 H(1)   Bbb    -0.0078    -4.156    -1.483    -1.386 -0.6011  0.6500 -0.4650
              Bcc     0.0182     9.689     3.457     3.232  0.6586  0.7325  0.1725
 
              Baa    -0.0110    -1.476    -0.527    -0.492 -0.5349 -0.4051  0.7415
    28 C(13)  Bbb    -0.0013    -0.171    -0.061    -0.057  0.7947  0.0569  0.6044
              Bcc     0.0123     1.647     0.588     0.549 -0.2870  0.9125  0.2915
 
              Baa    -0.0695   -37.072   -13.228   -12.366  0.6281  0.7282  0.2742
    29 H(1)   Bbb    -0.0043    -2.268    -0.809    -0.756  0.7452 -0.6644  0.0574
              Bcc     0.0737    39.339    14.037    13.122 -0.2240 -0.1683  0.9600
 
              Baa    -0.0099    -5.267    -1.879    -1.757 -0.5264 -0.4171  0.7409
    30 H(1)   Bbb    -0.0065    -3.487    -1.244    -1.163  0.8502 -0.2707  0.4516
              Bcc     0.0164     8.754     3.124     2.920  0.0122  0.8676  0.4971
 
              Baa    -0.0099    -5.275    -1.882    -1.759  0.2472  0.8938 -0.3742
    31 H(1)   Bbb    -0.0077    -4.119    -1.470    -1.374  0.9599 -0.2785 -0.0311
              Bcc     0.0176     9.394     3.352     3.133  0.1320  0.3515  0.9268
 
              Baa    -0.0153    -2.059    -0.735    -0.687  0.2396 -0.3348  0.9113
    32 C(13)  Bbb    -0.0132    -1.776    -0.634    -0.592 -0.5693  0.7119  0.4112
              Bcc     0.0286     3.835     1.369     1.279  0.7865  0.6173  0.0200
 
              Baa    -0.0044    -0.584    -0.208    -0.195 -0.3400 -0.2651  0.9023
    33 C(13)  Bbb    -0.0024    -0.319    -0.114    -0.107  0.8586 -0.4790  0.1828
              Bcc     0.0067     0.903     0.322     0.301  0.3837  0.8368  0.3905
 
              Baa    -0.0057    -3.019    -1.077    -1.007 -0.6577  0.7383  0.1497
    34 H(1)   Bbb    -0.0054    -2.868    -1.023    -0.957  0.2242  0.0022  0.9745
              Bcc     0.0110     5.887     2.101     1.964  0.7191  0.6745 -0.1670
 
              Baa    -0.0084    -4.470    -1.595    -1.491 -0.1837 -0.4057  0.8954
    35 H(1)   Bbb    -0.0046    -2.468    -0.881    -0.823 -0.2947  0.8917  0.3436
              Bcc     0.0130     6.938     2.476     2.314  0.9378  0.2008  0.2834
 
              Baa    -0.0018    -0.935    -0.334    -0.312 -0.0002 -0.4735  0.8808
    36 H(1)   Bbb    -0.0012    -0.633    -0.226    -0.211 -0.6323  0.6824  0.3667
              Bcc     0.0029     1.568     0.560     0.523  0.7747  0.5569  0.2995
 
              Baa    -0.0026    -1.367    -0.488    -0.456 -0.2797 -0.2784  0.9188
    37 H(1)   Bbb    -0.0014    -0.732    -0.261    -0.244  0.7955 -0.6030  0.0594
              Bcc     0.0039     2.098     0.749     0.700  0.5375  0.7476  0.3901
 
              Baa    -0.0020    -1.042    -0.372    -0.348  0.7354 -0.6617 -0.1462
    38 H(1)   Bbb    -0.0019    -1.011    -0.361    -0.337 -0.4020 -0.5997  0.6920
              Bcc     0.0038     2.054     0.733     0.685  0.5455  0.4501  0.7070
 

 ---------------------------------------------------------------------------------

 Unable to Open any file for archive entry.
 1\1\GINC-CLUSTER\SP\UM062X\def2TZVP\C14H19N2O2S1(2)\KJIANG\21-Nov-2025
 \0\\# scrf=(solvent=n,n-dimethylformamide) def2tzvp m062x geom=allchec
 k\\Title Card Required\\0,2\C,0,-3.0448592674,2.5453951405,-0.43071092
 58\C,0,-2.4767477043,1.2801511563,-0.239913315\C,0,-3.2836266997,0.196
 7543094,0.1640221788\C,0,-4.6552962913,0.3285697936,0.3957684044\C,0,-
 5.1951480383,1.5888727488,0.202081741\C,0,-4.402941588,2.6822348352,-0
 .2060466524\H,0,-2.426176443,3.3795429793,-0.7433441761\H,0,-5.2677406
 321,-0.5076047775,0.7168186438\H,0,-6.2563250842,1.7407729477,0.371134
 5879\H,0,-4.874273914,3.6497922789,-0.3436216122\N,0,-2.4316709679,-0.
 8862746984,0.2465904171\N,0,-1.1624943884,0.8679305822,-0.3871039121\C
 ,0,-1.2028822134,-0.3979499105,-0.086641454\C,0,-2.7620997937,-2.23935
 35421,0.6654981677\H,0,-2.1072255735,-2.9441293709,0.1509948422\H,0,-2
 .6421828537,-2.3492160574,1.7456064821\H,0,-3.7948169433,-2.4451019061
 ,0.3794697732\S,0,0.233398868,-1.4586901006,-0.068550491\O,0,0.0831172
 289,-2.4387698508,-1.1439312225\O,0,0.3987152453,-1.9327945269,1.30493
 50262\C,0,1.5601017248,-0.3291532526,-0.4791068915\C,0,2.8811971187,-1
 .1219584247,-0.5240118347\H,0,1.5643371687,0.4457016527,0.291542491\H,
 0,1.3089622756,0.1226928246,-1.4414806836\C,0,4.0275354169,-0.21657982
 17,-0.8319187761\H,0,3.0227790094,-1.6014181617,0.4532131408\H,0,2.787
 7939056,-1.9139881776,-1.2732670448\C,0,4.5355280666,0.7586865961,0.17
 68623857\H,0,4.3095465581,-0.0739705751,-1.8719336116\H,0,3.9355986442
 ,1.6873078088,0.1616319099\H,0,4.4064151148,0.3436167117,1.1872465952\
 C,0,6.0045923956,1.135228496,-0.0402191339\C,0,6.5017794116,2.15270404
 83,0.9822623813\H,0,6.1226859023,1.537916628,-1.0541141901\H,0,6.61503
 36724,0.2258590866,0.0047894043\H,0,7.5509659632,2.4102361445,0.813241
 4339\H,0,5.916032153,3.0766547469,0.9310235072\H,0,6.4124205525,1.7590
 406387,2.0001914139\\Version=ES64L-G16RevC.02\State=2-A\HF=-1202.96943
 6\S2=0.755219\S2-1=0.\S2A=0.750022\RMSD=5.381e-09\Dipole=-0.7750742,0.
 8142383,0.1307146\Quadrupole=16.5800408,-6.9686415,-9.6113993,5.771274
 2,-4.6490758,-2.5543551\PG=C01 [X(C14H19N2O2S1)]\\@
 The archive entry for this job was punched.


 GOD GAVE US TWO ENDS... ONE TO SIT ON...    
 AND THE OTHER TO THINK WITH...              
 YOUR SUCCESS DEPENDS UPON WHICH END YOU     
 USE THE MOST...                             
                                             
 IT'S A CASE OF HEADS YOU WIN TAILS YOU LOSE.
          SOURCE UNKNOWN(IT'S JUST AS WELL.) 
 Job cpu time:       0 days  2 hours  1 minutes  4.5 seconds.
 Elapsed time:       0 days  0 hours  1 minutes 32.1 seconds.
 File lengths (MBytes):  RWF=    608 Int=      0 D2E=      0 Chk=     45 Scr=      1
 Normal termination of Gaussian 16 at Fri Nov 21 18:16:41 2025.
