 Entering Gaussian System, Link 0=g16
 Initial command:
 /public/software/g16/l1.exe "/tmp/Gau-7309.inp" -scrdir="/tmp/"
 Entering Link 1 = /public/software/g16/l1.exe PID=      7310.
  
 Copyright (c) 1988-2021, Gaussian, Inc.  All Rights Reserved.
  
 This is part of the Gaussian(R) 16 program.  It is based on
 the Gaussian(R) 09 system (copyright 2009, Gaussian, Inc.),
 the Gaussian(R) 03 system (copyright 2003, Gaussian, Inc.),
 the Gaussian(R) 98 system (copyright 1998, Gaussian, Inc.),
 the Gaussian(R) 94 system (copyright 1995, Gaussian, Inc.),
 the Gaussian 92(TM) system (copyright 1992, Gaussian, Inc.),
 the Gaussian 90(TM) system (copyright 1990, Gaussian, Inc.),
 the Gaussian 88(TM) system (copyright 1988, Gaussian, Inc.),
 the Gaussian 86(TM) system (copyright 1986, Carnegie Mellon
 University), and the Gaussian 82(TM) system (copyright 1983,
 Carnegie Mellon University). Gaussian is a federally registered
 trademark of Gaussian, Inc.
  
 This software contains proprietary and confidential information,
 including trade secrets, belonging to Gaussian, Inc.
  
 This software is provided under written license and may be
 used, copied, transmitted, or stored only in accord with that
 written license.
  
 The following legend is applicable only to US Government
 contracts under FAR:
  
                    RESTRICTED RIGHTS LEGEND
  
 Use, reproduction and disclosure by the US Government is
 subject to restrictions as set forth in subparagraphs (a)
 and (c) of the Commercial Computer Software - Restricted
 Rights clause in FAR 52.227-19.
  
 Gaussian, Inc.
 340 Quinnipiac St., Bldg. 40, Wallingford CT 06492
  
  
 ---------------------------------------------------------------
 Warning -- This program may not be used in any manner that
 competes with the business of Gaussian, Inc. or will provide
 assistance to any competitor of Gaussian, Inc.  The licensee
 of this program is prohibited from giving any competitor of
 Gaussian, Inc. access to this program.  By using this program,
 the user acknowledges that Gaussian, Inc. is engaged in the
 business of creating and licensing software in the field of
 computational chemistry and represents and warrants to the
 licensee that it is not a competitor of Gaussian, Inc. and that
 it will not use this program in any manner prohibited above.
 ---------------------------------------------------------------
  

 Cite this work as:
 Gaussian 16, Revision C.02,
 M. J. Frisch, G. W. Trucks, H. B. Schlegel, G. E. Scuseria, 
 M. A. Robb, J. R. Cheeseman, G. Scalmani, V. Barone, 
 G. A. Petersson, H. Nakatsuji, X. Li, M. Caricato, A. V. Marenich, 
 J. Bloino, B. G. Janesko, R. Gomperts, B. Mennucci, H. P. Hratchian, 
 J. V. Ortiz, A. F. Izmaylov, J. L. Sonnenberg, D. Williams-Young, 
 F. Ding, F. Lipparini, F. Egidi, J. Goings, B. Peng, A. Petrone, 
 T. Henderson, D. Ranasinghe, V. G. Zakrzewski, J. Gao, N. Rega, 
 G. Zheng, W. Liang, M. Hada, M. Ehara, K. Toyota, R. Fukuda, 
 J. Hasegawa, M. Ishida, T. Nakajima, Y. Honda, O. Kitao, H. Nakai, 
 T. Vreven, K. Throssell, J. A. Montgomery, Jr., J. E. Peralta, 
 F. Ogliaro, M. J. Bearpark, J. J. Heyd, E. N. Brothers, K. N. Kudin, 
 V. N. Staroverov, T. A. Keith, R. Kobayashi, J. Normand, 
 K. Raghavachari, A. P. Rendell, J. C. Burant, S. S. Iyengar, 
 J. Tomasi, M. Cossi, J. M. Millam, M. Klene, C. Adamo, R. Cammi, 
 J. W. Ochterski, R. L. Martin, K. Morokuma, O. Farkas, 
 J. B. Foresman, and D. J. Fox, Gaussian, Inc., Wallingford CT, 2019.
 
 ******************************************
 Gaussian 16:  ES64L-G16RevC.02  7-Dec-2021
                21-Nov-2025 
 ******************************************
 %nprocshared=96
 Will use up to   96 processors via shared memory.
 %mem=50GB
 %chk=IM2.chk
 -------------------------------------------------------------------
 # scrf=(solvent=n,n-dimethylformamide) def2tzvp m062x geom=allcheck
 -------------------------------------------------------------------
 1/29=7,38=1,172=1/1;
 2/12=2,40=1/2;
 3/5=44,7=101,11=2,14=-4,25=1,30=1,70=2201,72=148,74=-55/1,2,3;
 4//1;
 5/5=2,38=5,53=148/2;
 6/7=2,8=2,9=2,10=2,28=1/1;
 99/5=1,9=1/99;
 Structure from the checkpoint file:  "IM2.chk"
 -------------------
 Title Card Required
 -------------------
 Charge =  0 Multiplicity = 2
 Redundant internal coordinates found in file.  (old form).
 C,0,-2.7384333294,-0.9049505037,-1.5261330053
 C,0,-1.5518082373,-0.5251969615,-0.8547351114
 C,0,-1.5781758086,-0.3427616107,0.5675526466
 C,0,-2.7327988708,-0.5400226765,1.3223244678
 C,0,-3.876382855,-0.9177049172,0.6290874922
 C,0,-3.8780592155,-1.0954356732,-0.7749636553
 H,0,-2.7220583098,-1.0459112683,-2.6009574614
 H,0,-2.7394907626,-0.4083552337,2.3991947436
 H,0,-4.7964457273,-1.0843962346,1.1800071643
 H,0,-4.7999713713,-1.3946665488,-1.2625853713
 N,0,-0.3278184847,0.0559456917,0.9259643608
 N,0,-0.3419685315,-0.2688024476,-1.3585122112
 C,0,0.495775557,-0.0099113857,-0.2557650711
 C,0,0.0800182109,0.2711152684,2.2989616469
 H,0,-0.5008539497,1.095752317,2.7280952771
 H,0,-0.0644218265,-0.6383955793,2.8889010957
 H,0,1.1388869456,0.5208809497,2.3321560925
 S,0,1.6656212102,-1.6029114376,-0.0332784675
 O,0,1.3416774469,-2.6914013904,-0.9455566781
 O,0,1.7596609589,-1.8464070906,1.4118570444
 C,0,3.1750292137,-0.7360896289,-0.5157980303
 C,0,2.9314416565,0.6830135978,-0.0145441848
 H,0,3.2482145329,-0.7877972465,-1.605141726
 H,0,4.0146421564,-1.2532452397,-0.047535286
 C,0,1.5340121275,1.1077597467,-0.5042526943
 H,0,2.9983210096,0.7049502333,1.0792729244
 H,0,3.6865806041,1.3711492794,-0.4050067946
 C,0,1.0892356813,2.4775218408,0.007185477
 H,0,1.5856661045,1.1554278637,-1.5995261597
 H,0,1.008888742,2.4668474926,1.1020543646
 H,0,1.8847922334,3.1971888338,-0.2312701649
 C,0,-0.2266389987,2.9640890233,-0.6007397679
 C,0,-0.5809933007,4.3736173799,-0.1342189752
 H,0,-1.0348591843,2.272945411,-0.335220876
 H,0,-0.1487868953,2.9375033369,-1.6946017883
 H,0,-1.5236296336,4.7127602085,-0.5719494543
 H,0,-0.6856476112,4.4100303961,0.9555928026
 H,0,0.1981665125,5.0895312038,-0.4170126655
 Recover connectivity data from disk.
                           ----------------------------
                           !    Current Parameters    !
                           ! (Angstroms and Degrees)  !
 --------------------------                            --------------------------
 ! Name  Definition              Value                                          !
 --------------------------------------------------------------------------------
 ! R1    R(1,2)                  1.4153                                         !
 ! R2    R(1,6)                  1.3781                                         !
 ! R3    R(1,7)                  1.0842                                         !
 ! R4    R(2,3)                  1.4342                                         !
 ! R5    R(2,12)                 1.3354                                         !
 ! R6    R(3,4)                  1.3935                                         !
 ! R7    R(3,11)                 1.3604                                         !
 ! R8    R(4,5)                  1.3896                                         !
 ! R9    R(4,8)                  1.0849                                         !
 ! R10   R(5,6)                  1.4153                                         !
 ! R11   R(5,9)                  1.0853                                         !
 ! R12   R(6,10)                 1.085                                          !
 ! R13   R(11,13)                1.4419                                         !
 ! R14   R(11,14)                1.4484                                         !
 ! R15   R(12,13)                1.4089                                         !
 ! R16   R(13,18)                1.9889                                         !
 ! R17   R(13,25)                1.5456                                         !
 ! R18   R(14,15)                1.0962                                         !
 ! R19   R(14,16)                1.0937                                         !
 ! R20   R(14,17)                1.0884                                         !
 ! R21   R(18,19)                1.4567                                         !
 ! R22   R(18,20)                1.4685                                         !
 ! R23   R(18,21)                1.8062                                         !
 ! R24   R(21,22)                1.5246                                         !
 ! R25   R(21,23)                1.093                                          !
 ! R26   R(21,24)                1.0916                                         !
 ! R27   R(22,25)                1.5405                                         !
 ! R28   R(22,26)                1.0961                                         !
 ! R29   R(22,27)                1.0937                                         !
 ! R30   R(25,28)                1.5283                                         !
 ! R31   R(25,29)                1.0975                                         !
 ! R32   R(28,30)                1.0979                                         !
 ! R33   R(28,31)                1.099                                          !
 ! R34   R(28,32)                1.529                                          !
 ! R35   R(32,33)                1.5264                                         !
 ! R36   R(32,34)                1.0961                                         !
 ! R37   R(32,35)                1.097                                          !
 ! R38   R(33,36)                1.0932                                         !
 ! R39   R(33,37)                1.0954                                         !
 ! R40   R(33,38)                1.0953                                         !
 ! A1    A(2,1,6)              118.1536                                         !
 ! A2    A(2,1,7)              119.5069                                         !
 ! A3    A(6,1,7)              122.3363                                         !
 ! A4    A(1,2,3)              119.286                                          !
 ! A5    A(1,2,12)             129.2097                                         !
 ! A6    A(3,2,12)             111.4912                                         !
 ! A7    A(2,3,4)              122.3022                                         !
 ! A8    A(2,3,11)             106.3586                                         !
 ! A9    A(4,3,11)             131.3254                                         !
 ! A10   A(3,4,5)              116.7539                                         !
 ! A11   A(3,4,8)              121.7064                                         !
 ! A12   A(5,4,8)              121.5394                                         !
 ! A13   A(4,5,6)              122.0075                                         !
 ! A14   A(4,5,9)              119.0898                                         !
 ! A15   A(6,5,9)              118.9025                                         !
 ! A16   A(1,6,5)              121.4937                                         !
 ! A17   A(1,6,10)             119.7216                                         !
 ! A18   A(5,6,10)             118.7835                                         !
 ! A19   A(3,11,13)            107.1971                                         !
 ! A20   A(3,11,14)            123.5098                                         !
 ! A21   A(13,11,14)           128.5252                                         !
 ! A22   A(2,12,13)            106.1839                                         !
 ! A23   A(11,13,12)           108.0736                                         !
 ! A24   A(11,13,18)           106.3118                                         !
 ! A25   A(11,13,25)           118.8433                                         !
 ! A26   A(12,13,18)           106.8657                                         !
 ! A27   A(12,13,25)           113.9836                                         !
 ! A28   A(18,13,25)           101.6579                                         !
 ! A29   A(11,14,15)           109.491                                          !
 ! A30   A(11,14,16)           110.5248                                         !
 ! A31   A(11,14,17)           109.6904                                         !
 ! A32   A(15,14,16)           110.1487                                         !
 ! A33   A(15,14,17)           109.3263                                         !
 ! A34   A(16,14,17)           107.6298                                         !
 ! A35   A(13,18,19)           113.4302                                         !
 ! A36   A(13,18,20)           106.2933                                         !
 ! A37   A(13,18,21)            94.4314                                         !
 ! A38   A(19,18,20)           120.4396                                         !
 ! A39   A(19,18,21)           112.1561                                         !
 ! A40   A(20,18,21)           106.7948                                         !
 ! A41   A(18,21,22)           103.0234                                         !
 ! A42   A(18,21,23)           107.427                                          !
 ! A43   A(18,21,24)           107.5052                                         !
 ! A44   A(22,21,23)           112.4823                                         !
 ! A45   A(22,21,24)           115.0123                                         !
 ! A46   A(23,21,24)           110.7077                                         !
 ! A47   A(21,22,25)           107.2813                                         !
 ! A48   A(21,22,26)           109.6927                                         !
 ! A49   A(21,22,27)           110.974                                          !
 ! A50   A(25,22,26)           111.5352                                         !
 ! A51   A(25,22,27)           109.8375                                         !
 ! A52   A(26,22,27)           107.5505                                         !
 ! A53   A(13,25,22)           111.0309                                         !
 ! A54   A(13,25,28)           113.5049                                         !
 ! A55   A(13,25,29)           102.9125                                         !
 ! A56   A(22,25,28)           113.8755                                         !
 ! A57   A(22,25,29)           106.65                                           !
 ! A58   A(28,25,29)           107.9828                                         !
 ! A59   A(25,28,30)           110.2624                                         !
 ! A60   A(25,28,31)           107.6766                                         !
 ! A61   A(25,28,32)           113.7425                                         !
 ! A62   A(30,28,31)           106.0061                                         !
 ! A63   A(30,28,32)           109.6712                                         !
 ! A64   A(31,28,32)           109.1686                                         !
 ! A65   A(28,32,33)           111.8467                                         !
 ! A66   A(28,32,34)           109.7316                                         !
 ! A67   A(28,32,35)           109.1283                                         !
 ! A68   A(33,32,34)           109.6974                                         !
 ! A69   A(33,32,35)           110.0978                                         !
 ! A70   A(34,32,35)           106.1773                                         !
 ! A71   A(32,33,36)           111.3615                                         !
 ! A72   A(32,33,37)           110.9121                                         !
 ! A73   A(32,33,38)           111.0713                                         !
 ! A74   A(36,33,37)           107.7975                                         !
 ! A75   A(36,33,38)           107.8927                                         !
 ! A76   A(37,33,38)           107.6445                                         !
 ! D1    D(6,1,2,3)             -0.5074                                         !
 ! D2    D(6,1,2,12)          -179.0654                                         !
 ! D3    D(7,1,2,3)           -179.8699                                         !
 ! D4    D(7,1,2,12)             1.5721                                         !
 ! D5    D(2,1,6,5)              0.095                                          !
 ! D6    D(2,1,6,10)          -179.5059                                         !
 ! D7    D(7,1,6,5)            179.4383                                         !
 ! D8    D(7,1,6,10)            -0.1626                                         !
 ! D9    D(1,2,3,4)              0.6913                                         !
 ! D10   D(1,2,3,11)          -178.1006                                         !
 ! D11   D(12,2,3,4)           179.4906                                         !
 ! D12   D(12,2,3,11)            0.6987                                         !
 ! D13   D(1,2,12,13)         -176.8011                                         !
 ! D14   D(3,2,12,13)            4.5506                                         !
 ! D15   D(2,3,4,5)             -0.4163                                         !
 ! D16   D(2,3,4,8)            179.4108                                         !
 ! D17   D(11,3,4,5)           178.04                                           !
 ! D18   D(11,3,4,8)            -2.1329                                         !
 ! D19   D(2,3,11,13)           -5.5396                                         !
 ! D20   D(2,3,11,14)         -176.258                                          !
 ! D21   D(4,3,11,13)          175.8201                                         !
 ! D22   D(4,3,11,14)            5.1017                                         !
 ! D23   D(3,4,5,6)             -0.0162                                         !
 ! D24   D(3,4,5,9)            179.8192                                         !
 ! D25   D(8,4,5,6)           -179.8436                                         !
 ! D26   D(8,4,5,9)             -0.0082                                         !
 ! D27   D(4,5,6,1)              0.1778                                         !
 ! D28   D(4,5,6,10)           179.7824                                         !
 ! D29   D(9,5,6,1)           -179.6578                                         !
 ! D30   D(9,5,6,10)            -0.0533                                         !
 ! D31   D(3,11,13,12)           8.452                                          !
 ! D32   D(3,11,13,18)        -105.9722                                         !
 ! D33   D(3,11,13,25)         140.3539                                         !
 ! D34   D(14,11,13,12)        178.554                                          !
 ! D35   D(14,11,13,18)         64.1298                                         !
 ! D36   D(14,11,13,25)        -49.5442                                         !
 ! D37   D(3,11,14,15)         -63.7516                                         !
 ! D38   D(3,11,14,16)          57.7602                                         !
 ! D39   D(3,11,14,17)         176.2795                                         !
 ! D40   D(13,11,14,15)        127.6068                                         !
 ! D41   D(13,11,14,16)       -110.8815                                         !
 ! D42   D(13,11,14,17)          7.6378                                         !
 ! D43   D(2,12,13,11)          -7.8816                                         !
 ! D44   D(2,12,13,18)         106.1762                                         !
 ! D45   D(2,12,13,25)        -142.356                                          !
 ! D46   D(11,13,18,19)        110.5198                                         !
 ! D47   D(11,13,18,20)        -24.0624                                         !
 ! D48   D(11,13,18,21)       -133.0031                                         !
 ! D49   D(12,13,18,19)         -4.7258                                         !
 ! D50   D(12,13,18,20)       -139.308                                          !
 ! D51   D(12,13,18,21)        111.7512                                         !
 ! D52   D(25,13,18,19)       -124.4775                                         !
 ! D53   D(25,13,18,20)        100.9403                                         !
 ! D54   D(25,13,18,21)         -8.0004                                         !
 ! D55   D(11,13,25,22)         96.8193                                         !
 ! D56   D(11,13,25,28)        -32.9792                                         !
 ! D57   D(11,13,25,29)       -149.4096                                         !
 ! D58   D(12,13,25,22)       -133.934                                          !
 ! D59   D(12,13,25,28)         96.2675                                         !
 ! D60   D(12,13,25,29)        -20.1629                                         !
 ! D61   D(18,13,25,22)        -19.3502                                         !
 ! D62   D(18,13,25,28)       -149.1486                                         !
 ! D63   D(18,13,25,29)         94.421                                          !
 ! D64   D(13,18,21,22)         32.4025                                         !
 ! D65   D(13,18,21,23)        -86.5433                                         !
 ! D66   D(13,18,21,24)        154.2729                                         !
 ! D67   D(19,18,21,22)        149.9302                                         !
 ! D68   D(19,18,21,23)         30.9844                                         !
 ! D69   D(19,18,21,24)        -88.1993                                         !
 ! D70   D(20,18,21,22)        -76.0987                                         !
 ! D71   D(20,18,21,23)        164.9555                                         !
 ! D72   D(20,18,21,24)         45.7718                                         !
 ! D73   D(18,21,22,25)        -49.2088                                         !
 ! D74   D(18,21,22,26)         72.1004                                         !
 ! D75   D(18,21,22,27)       -169.2007                                         !
 ! D76   D(23,21,22,25)         66.1576                                         !
 ! D77   D(23,21,22,26)       -172.5332                                         !
 ! D78   D(23,21,22,27)        -53.8343                                         !
 ! D79   D(24,21,22,25)       -165.8628                                         !
 ! D80   D(24,21,22,26)        -44.5536                                         !
 ! D81   D(24,21,22,27)         74.1453                                         !
 ! D82   D(21,22,25,13)         45.9643                                         !
 ! D83   D(21,22,25,28)        175.567                                          !
 ! D84   D(21,22,25,29)        -65.4354                                         !
 ! D85   D(26,22,25,13)        -74.1788                                         !
 ! D86   D(26,22,25,28)         55.4239                                         !
 ! D87   D(26,22,25,29)        174.4215                                         !
 ! D88   D(27,22,25,13)        166.6782                                         !
 ! D89   D(27,22,25,28)        -63.7192                                         !
 ! D90   D(27,22,25,29)         55.2784                                         !
 ! D91   D(13,25,28,30)         65.6539                                         !
 ! D92   D(13,25,28,31)       -179.1229                                         !
 ! D93   D(13,25,28,32)        -58.0144                                         !
 ! D94   D(22,25,28,30)        -62.6965                                         !
 ! D95   D(22,25,28,31)         52.5267                                         !
 ! D96   D(22,25,28,32)        173.6352                                         !
 ! D97   D(29,25,28,30)        179.0676                                         !
 ! D98   D(29,25,28,31)        -65.7093                                         !
 ! D99   D(29,25,28,32)         55.3993                                         !
 ! D100  D(25,28,32,33)       -176.0918                                         !
 ! D101  D(25,28,32,34)         61.9309                                         !
 ! D102  D(25,28,32,35)        -54.0256                                         !
 ! D103  D(30,28,32,33)         59.9193                                         !
 ! D104  D(30,28,32,34)        -62.0579                                         !
 ! D105  D(30,28,32,35)       -178.0144                                         !
 ! D106  D(31,28,32,33)        -55.8206                                         !
 ! D107  D(31,28,32,34)       -177.7979                                         !
 ! D108  D(31,28,32,35)         66.2456                                         !
 ! D109  D(28,32,33,36)       -179.8951                                         !
 ! D110  D(28,32,33,37)        -59.8425                                         !
 ! D111  D(28,32,33,38)         59.8244                                         !
 ! D112  D(34,32,33,36)        -57.8982                                         !
 ! D113  D(34,32,33,37)         62.1543                                         !
 ! D114  D(34,32,33,38)       -178.1787                                         !
 ! D115  D(35,32,33,36)         58.5962                                         !
 ! D116  D(35,32,33,37)        178.6487                                         !
 ! D117  D(35,32,33,38)        -61.6844                                         !
 --------------------------------------------------------------------------------
                          Input orientation:                          
 ---------------------------------------------------------------------
 Center     Atomic      Atomic             Coordinates (Angstroms)
 Number     Number       Type             X           Y           Z
 ---------------------------------------------------------------------
      1          6           0       -2.738433   -0.904951   -1.526133
      2          6           0       -1.551808   -0.525197   -0.854735
      3          6           0       -1.578176   -0.342762    0.567553
      4          6           0       -2.732799   -0.540023    1.322324
      5          6           0       -3.876383   -0.917705    0.629087
      6          6           0       -3.878059   -1.095436   -0.774964
      7          1           0       -2.722058   -1.045911   -2.600957
      8          1           0       -2.739491   -0.408355    2.399195
      9          1           0       -4.796446   -1.084396    1.180007
     10          1           0       -4.799971   -1.394667   -1.262585
     11          7           0       -0.327818    0.055946    0.925964
     12          7           0       -0.341969   -0.268802   -1.358512
     13          6           0        0.495776   -0.009911   -0.255765
     14          6           0        0.080018    0.271115    2.298962
     15          1           0       -0.500854    1.095752    2.728095
     16          1           0       -0.064422   -0.638396    2.888901
     17          1           0        1.138887    0.520881    2.332156
     18         16           0        1.665621   -1.602911   -0.033278
     19          8           0        1.341677   -2.691401   -0.945557
     20          8           0        1.759661   -1.846407    1.411857
     21          6           0        3.175029   -0.736090   -0.515798
     22          6           0        2.931442    0.683014   -0.014544
     23          1           0        3.248215   -0.787797   -1.605142
     24          1           0        4.014642   -1.253245   -0.047535
     25          6           0        1.534012    1.107760   -0.504253
     26          1           0        2.998321    0.704950    1.079273
     27          1           0        3.686581    1.371149   -0.405007
     28          6           0        1.089236    2.477522    0.007185
     29          1           0        1.585666    1.155428   -1.599526
     30          1           0        1.008889    2.466847    1.102054
     31          1           0        1.884792    3.197189   -0.231270
     32          6           0       -0.226639    2.964089   -0.600740
     33          6           0       -0.580993    4.373617   -0.134219
     34          1           0       -1.034859    2.272945   -0.335221
     35          1           0       -0.148787    2.937503   -1.694602
     36          1           0       -1.523630    4.712760   -0.571949
     37          1           0       -0.685648    4.410030    0.955593
     38          1           0        0.198167    5.089531   -0.417013
 ---------------------------------------------------------------------
                    Distance matrix (angstroms):
                    1          2          3          4          5
     1  C    0.000000
     2  C    1.415297   0.000000
     3  C    2.458815   1.434183   0.000000
     4  C    2.871744   2.476802   1.393466   0.000000
     5  C    2.437225   2.785577   2.369832   1.389606   0.000000
     6  C    1.378146   2.396451   2.767369   2.453308   1.415256
     7  H    1.084152   2.165623   3.441271   3.955778   3.432505
     8  H    3.956615   3.465877   2.169762   1.084910   2.164542
     9  H    3.404528   3.870472   3.358926   2.138980   1.085271
    10  H    2.135233   3.387164   3.851737   3.418388   2.158456
    11  N    3.570317   2.237581   1.360448   2.509225   3.691672
    12  N    2.485121   1.335381   2.289848   3.602293   4.106545
    13  C    3.588180   2.194740   2.256084   3.632503   4.552233
    14  C    4.894706   3.639062   2.474718   3.086050   4.455882
    15  H    5.206537   4.070461   2.810318   3.103793   4.455787
    16  H    5.168551   4.029881   2.787025   3.095816   4.440250
    17  H    5.652699   4.300046   3.352929   4.139472   5.488434
    18  S    4.702282   3.491148   3.531458   4.723716   5.623348
    19  O    4.491746   3.615653   4.041182   5.135472   5.731811
    20  O    5.454446   4.224792   3.756987   4.679407   5.765432
    21  C    6.001527   4.743664   4.890942   6.190280   7.146059
    22  C    6.078981   4.718604   4.661298   5.946987   7.023036
    23  H    5.988315   4.865418   5.311563   6.663631   7.467834
    24  H    6.921820   5.671596   5.699730   6.921933   7.927085
    25  C    4.832084   3.508799   3.597012   4.925165   5.887218
    26  H    6.503097   5.094833   4.722698   5.869818   7.077940
    27  H    6.907848   5.589195   5.621479   6.916985   7.969104
    28  C    5.333220   4.090763   3.922129   5.044117   6.047454
    29  H    4.790447   3.636339   4.117123   5.482782   6.252886
    30  H    5.684964   4.397559   3.856488   4.805207   5.961944
    31  H    6.314937   5.104418   5.016125   6.140241   7.131879
    32  C    4.704777   3.741083   3.758566   4.717819   5.468220
    33  C    5.869860   5.045791   4.871456   5.558385   6.280153
    34  H    3.797296   2.892530   2.819950   3.680115   4.380000
    35  H    4.636712   3.829378   4.233277   5.279408   5.844411
    36  H    5.826224   5.245661   5.182638   5.713326   6.219331
    37  H    6.214653   5.327663   4.851414   5.369203   6.218694
    38  H    6.766652   5.897388   5.799532   6.580861   7.333701
                    6          7          8          9         10
     6  C    0.000000
     7  H    2.161722   0.000000
     8  H    3.441468   5.040665   0.000000
     9  H    2.159969   4.312802   2.484857   0.000000
    10  H    1.085005   2.496116   4.315904   2.462222   0.000000
    11  N    4.101590   4.402914   2.863939   4.618825   5.185960
    12  N    3.678014   2.795066   4.459591   5.191497   4.598974
    13  C    4.536338   4.114326   4.204107   5.587805   5.565624
    14  C    5.194502   5.796154   2.901958   5.183567   6.266877
    15  H    5.336501   6.157863   2.716985   5.059816   6.372608
    16  H    5.308165   6.112908   2.729235   5.050870   6.342887
    17  H    6.118531   6.457348   3.988708   6.255600   7.201495
    18  S    5.616050   5.114192   5.171934   6.595395   6.584713
    19  O    5.460939   4.686357   5.749400   6.691565   6.285052
    20  O    6.093442   6.068713   4.825474   6.604313   7.098274
    21  C    7.066990   6.262549   6.601980   8.157296   8.036918
    22  C    7.078871   6.452967   6.259129   8.016915   8.102414
    23  H    7.181059   6.058253   7.213273   8.518309   8.078300
    24  H    7.927723   7.207363   7.233162   8.897788   8.899088
    25  C    5.849604   5.210432   5.384370   6.907748   6.852485
    26  H    7.346032   7.023699   5.992005   7.998143   8.408689
    27  H    7.965217   7.192707   7.233573   8.972386   8.966981
    28  C    6.168614   5.808868   5.358091   6.978826   7.161628
    29  H    5.966455   4.940167   6.094437   7.312590   6.884248
    30  H    6.332086   6.322321   4.898950   6.805830   7.365166
    31  H    7.206434   6.696446   6.426763   8.059939   8.175256
    32  C    5.462871   5.129141   5.165986   6.359593   6.352335
    33  C    6.418079   6.327736   5.826196   7.020480   7.235060
    34  H    4.429803   4.358327   4.191917   5.264712   5.337364
    35  H    5.569363   4.828126   5.887757   6.785262   6.370860
    36  H    6.270542   6.222170   6.044157   6.883872   6.965060
    37  H    6.595186   6.823732   5.433148   6.865693   7.452683
    38  H    7.416034   7.137295   6.840147   8.100247   8.230504
                   11         12         13         14         15
    11  N    0.000000
    12  N    2.307487   0.000000
    13  C    1.441918   1.408862   0.000000
    14  C    1.448361   3.721115   2.603547   0.000000
    15  H    2.087778   4.311336   3.334544   1.096173   0.000000
    16  H    2.098716   4.272488   3.255417   1.093664   1.795439
    17  H    2.084410   4.054327   2.718946   1.088434   1.782132
    18  S    2.765096   2.750729   1.988891   3.386068   4.427368
    19  O    3.719909   2.978956   2.895125   4.571125   5.588665
    20  O    2.865765   3.818459   2.784077   2.844654   3.936840
    21  C    3.869876   3.646615   2.788073   4.303072   5.233604
    22  C    3.449717   3.664344   2.543777   3.694940   4.412831
    23  H    4.461660   3.635876   3.162569   5.138170   6.031601
    24  H    4.638820   4.654873   3.737868   4.828145   5.797553
    25  C    2.572595   2.478707   1.545597   3.266815   3.819542
    26  H    3.392332   4.248356   2.925079   3.192545   3.887874
    27  H    4.429068   4.452844   3.480063   4.639915   5.237058
    28  C    2.952326   3.384638   2.570732   3.337512   3.441079
    29  H    3.353861   2.408795   2.086042   4.271673   4.804730
    30  H    2.762289   3.919564   2.870765   2.667701   2.608301
    31  H    4.012760   4.271093   3.495062   4.268628   4.343407
    32  C    3.286086   3.322515   3.079865   3.969183   3.827142
    33  C    4.453131   4.807087   4.515477   4.815374   4.352432
    34  H    2.646806   2.826253   2.749653   3.491302   3.324884
    35  H    3.899076   3.229655   3.342599   4.807341   4.803774
    36  H    5.035835   5.179862   5.146027   5.526484   5.001911
    37  H    4.368864   5.231126   4.732762   4.418314   3.763024
    38  H    5.236147   5.467166   5.110664   5.532414   5.131335
                   16         17         18         19         20
    16  H    0.000000
    17  H    1.761204   0.000000
    18  S    3.530223   3.222301   0.000000
    19  O    4.571106   4.593831   1.456709   0.000000
    20  O    2.639740   2.614644   1.468520   2.538922   0.000000
    21  C    4.700592   3.719771   1.806244   2.714611   2.636651
    22  C    4.376222   2.957455   2.613064   3.844582   3.131399
    23  H    5.585007   4.654483   2.374819   2.773742   3.526858
    24  H    5.063542   4.132847   2.374946   3.165356   2.750747
    25  C    4.137335   2.923314   2.754428   3.829539   3.528384
    26  H    3.802595   2.249687   2.887921   4.287144   2.855576
    27  H    5.381275   3.834809   3.614899   4.721767   4.167335
    28  C    4.398199   3.039144   4.121140   5.262054   4.595534
    29  H    5.107502   4.007541   3.173005   3.909642   4.255551
    30  H    3.739967   2.305826   4.275888   5.559765   4.389055
    31  H    5.314754   3.780232   4.809179   5.956566   5.305976
    32  C    5.018147   4.054110   4.975958   5.879038   5.580036
    33  C    5.875915   4.887184   6.385637   7.366778   6.823322
    34  H    4.451137   3.861321   4.733501   5.537615   5.275480
    35  H    5.814006   4.869594   5.164053   5.870871   6.014820
    36  H    6.537709   5.752797   7.095717   7.948030   7.598563
    37  H    5.441526   4.511024   6.531600   7.625926   6.732809
    38  H    6.618698   5.414374   6.862176   7.882251   7.340999
                   21         22         23         24         25
    21  C    0.000000
    22  C    1.524613   0.000000
    23  H    1.093023   2.189436   0.000000
    24  H    1.091636   2.218898   1.797273   0.000000
    25  C    2.468370   1.540465   2.782729   3.454918   0.000000
    26  H    2.156866   1.096079   3.081692   2.477324   2.194085
    27  H    2.171270   1.093721   2.508693   2.668868   2.170893
    28  C    3.866697   2.571858   4.233568   4.741268   1.528281
    29  H    2.697847   2.132242   2.557386   3.756369   1.097526
    30  H    4.191470   2.850450   4.789176   4.918862   2.168662
    31  H    4.149259   2.731945   4.430187   4.937244   2.136184
    32  C    5.026916   3.939594   5.211533   6.006697   2.560305
    33  C    6.353142   5.096281   6.592924   7.265601   3.908452
    34  H    5.177843   4.285121   5.415308   6.165570   2.825832
    35  H    5.092408   4.170507   5.042369   6.132646   2.756212
    36  H    7.195173   6.033011   7.354870   8.157247   4.727556
    37  H    6.599422   5.283479   7.003574   7.427764   4.238281
    38  H    6.542884   5.200978   6.727365   7.411667   4.200785
                   26         27         28         29         30
    26  H    0.000000
    27  H    1.766524   0.000000
    28  C    2.817089   2.853097   0.000000
    29  H    3.061779   2.426366   2.139135   0.000000
    30  H    2.657563   3.262181   1.097865   3.057946   0.000000
    31  H    3.027990   2.571195   1.098950   2.475962   1.754525
    32  C    4.280948   4.229546   1.529002   2.748323   2.161778
    33  C    5.267179   5.224972   2.530778   4.147081   2.773422
    34  H    4.552576   4.807297   2.161220   3.116804   2.506045
    35  H    4.752153   4.338959   2.154150   2.488606   3.063171
    36  H    6.263954   6.191973   3.486940   4.835106   3.776250
    37  H    5.226331   5.495672   2.790032   4.720163   2.582414
    38  H    5.413343   5.098582   2.792229   4.335973   3.137404
                   31         32         33         34         35
    31  H    0.000000
    32  C    2.156151   0.000000
    33  C    2.733771   1.526427   0.000000
    34  H    3.064212   1.096084   2.158522   0.000000
    35  H    2.518774   1.096951   2.164260   1.753476   0.000000
    36  H    3.745712   2.177353   1.093247   2.499527   2.510394
    37  H    3.080063   2.173386   1.095431   2.520968   3.078975
    38  H    2.541686   2.175252   1.095260   3.075743   2.526625
                   36         37         38
    36  H    0.000000
    37  H    1.768402   0.000000
    38  H    1.769334   1.768303   0.000000
 Stoichiometry    C14H19N2O2S(2)
 Framework group  C1[X(C14H19N2O2S)]
 Deg. of freedom   108
 Full point group                 C1      NOp   1
 Largest Abelian subgroup         C1      NOp   1
 Largest concise Abelian subgroup C1      NOp   1
                         Standard orientation:                         
 ---------------------------------------------------------------------
 Center     Atomic      Atomic             Coordinates (Angstroms)
 Number     Number       Type             X           Y           Z
 ---------------------------------------------------------------------
      1          6           0       -2.755822   -0.892822   -1.522315
      2          6           0       -1.562774   -0.520411   -0.858226
      3          6           0       -1.577989   -0.343212    0.564887
      4          6           0       -2.727855   -0.538619    1.327364
      5          6           0       -3.878014   -0.909051    0.641129
      6          6           0       -3.890690   -1.081500   -0.763525
      7          1           0       -2.747887   -1.029811   -2.597748
      8          1           0       -2.726129   -0.410970    2.404738
      9          1           0       -4.794694   -1.074075    1.198155
     10          1           0       -4.817360   -1.375154   -1.245485
     11          7           0       -0.323424    0.049069    0.915604
     12          7           0       -0.355615   -0.267038   -1.369901
     13          6           0        0.491226   -0.015692   -0.272369
     14          6           0        0.095324    0.257425    2.286366
     15          1           0       -0.479019    1.082795    2.722816
     16          1           0       -0.048511   -0.653701    2.873957
     17          1           0        1.155418    0.502765    2.312726
     18         16           0        1.656150   -1.614251   -0.064402
     19          8           0        1.321095   -2.697984   -0.978329
     20          8           0        1.759765   -1.863551    1.379088
     21          6           0        3.165516   -0.751756   -0.554743
     22          6           0        2.931402    0.666432   -0.046434
     23          1           0        3.230517   -0.799669   -1.644779
     24          1           0        4.006412   -1.274069   -0.094579
     25          6           0        1.532174    1.098682   -0.524297
     26          1           0        3.006372    0.683990    1.046938
     27          1           0        3.686469    1.352959   -0.439857
     28          6           0        1.096752    2.468307   -0.004513
     29          1           0        1.576007    1.150252   -1.619735
     30          1           0        1.024375    2.453848    1.090868
     31          1           0        1.893476    3.185630   -0.246113
     32          6           0       -0.221537    2.962490   -0.600957
     33          6           0       -0.566707    4.371683   -0.126603
     34          1           0       -1.030610    2.273640   -0.332096
     35          1           0       -0.151800    2.939696   -1.695452
     36          1           0       -1.511127    4.716290   -0.556144
     37          1           0       -0.663234    4.404428    0.964075
     38          1           0        0.213282    5.085486   -0.412433
 ---------------------------------------------------------------------
 Rotational constants (GHZ):           0.4501210           0.3486271           0.2515649
 Standard basis: def2TZVP (5D, 7F)
 There are   804 symmetry adapted cartesian basis functions of A   symmetry.
 There are   709 symmetry adapted basis functions of A   symmetry.
   709 basis functions,  1139 primitive gaussians,   804 cartesian basis functions
    75 alpha electrons       74 beta electrons
       nuclear repulsion energy      1740.9388581522 Hartrees.
 NAtoms=   38 NActive=   38 NUniq=   38 SFac= 1.00D+00 NAtFMM=   60 NAOKFM=F Big=F
 Integral buffers will be    131072 words long.
 Raffenetti 2 integral format.
 Two-electron integral symmetry is turned on.
 ------------------------------------------------------------------------------
 Polarizable Continuum Model (PCM)
 =================================
 Model                : PCM.
 Atomic radii         : UFF (Universal Force Field).
 Polarization charges : Total charges.
 Charge compensation  : None.
 Solution method      : On-the-fly selection.
 Cavity type          : Scaled VdW (van der Waals Surface) (Alpha=1.100).
 Cavity algorithm     : GePol (No added spheres)
                        Default sphere list used, NSphG=   38.
                        Lebedev-Laikov grids with approx.  5.0 points / Ang**2.
                        Smoothing algorithm: York/Karplus (Gamma=1.0000).
                        Polarization charges: spherical gaussians, with
                                              point-specific exponents (IZeta= 3).
                        Self-potential: point-specific (ISelfS= 7).
                        Self-field    : sphere-specific E.n sum rule (ISelfD= 2).
 Solvent              : n,n-DiMethylFormamide, Eps=  37.219000 Eps(inf)=   2.046330
 ------------------------------------------------------------------------------
 One-electron integrals computed using PRISM.
   1 Symmetry operations used in ECPInt.
 ECPInt:  NShTT=   41328 NPrTT=  126240 LenC2=   37999 LenP2D=   83879.
 LDataN:  DoStor=T MaxTD1= 6 Len=  172
 Number of processors reduced to  81 by ecpmxn.
 NBasis=   709 RedAO= T EigKep=  8.46D-06  NBF=   709
 NBsUse=   709 1.00D-06 EigRej= -1.00D+00 NBFU=   709
 ExpMin= 9.52D-02 ExpMax= 6.07D+04 ExpMxC= 2.07D+03 IAcc=3 IRadAn=         5 AccDes= 0.00D+00
 Harris functional with IExCor= 1009 and IRadAn=       5 diagonalized for initial guess.
 HarFok:  IExCor= 1009 AccDes= 0.00D+00 IRadAn=         5 IDoV= 1 UseB2=F ITyADJ=14
 ICtDFT=  3500011 ScaDFX=  1.000000  1.000000  1.000000  1.000000
 FoFCou: FMM=F IPFlag=           0 FMFlag=      100000 FMFlg1=           0
         NFxFlg=           0 DoJE=T BraDBF=F KetDBF=T FulRan=T
         wScrn=  0.000000 ICntrl=       500 IOpCl=  0 I1Cent=   200000004 NGrid=           0
         NMat0=    1 NMatS0=      1 NMatT0=    0 NMatD0=    1 NMtDS0=    0 NMtDT0=    0
 Petite list used in FoFCou.
 Initial guess <Sx>= 0.0000 <Sy>= 0.0000 <Sz>= 0.5000 <S**2>= 0.7500 S= 0.5000
 Requested convergence on RMS density matrix=1.00D-08 within 128 cycles.
 Requested convergence on MAX density matrix=1.00D-06.
 Requested convergence on             energy=1.00D-06.
 No special actions if energy rises.
 Inv3:  Mode=1 IEnd=    20451963.
 Iteration    1 A*A^-1 deviation from unit magnitude is 3.33D-15 for   1920.
 Iteration    1 A*A^-1 deviation from orthogonality  is 1.74D-15 for   1449    117.
 Iteration    1 A^-1*A deviation from unit magnitude is 3.33D-15 for   1920.
 Iteration    1 A^-1*A deviation from orthogonality  is 2.05D-14 for   2584   2574.
 Error on total polarization charges =  0.01618
 SCF Done:  E(UM062X) =  -1202.99833264     A.U. after   17 cycles
            NFock= 17  Conv=0.96D-08     -V/T= 2.0040
 <Sx>= 0.0000 <Sy>= 0.0000 <Sz>= 0.5000 <S**2>= 0.7707 S= 0.5103
 <L.S>=  0.00000000000    
 Annihilation of the first spin contaminant:
 S**2 before annihilation     0.7707,   after     0.7503

 **********************************************************************

            Population analysis using the SCF Density.

 **********************************************************************

 Orbital symmetries:
 Alpha Orbitals:
       Occupied  (A) (A) (A) (A) (A) (A) (A) (A) (A) (A) (A) (A)
                 (A) (A) (A) (A) (A) (A) (A) (A) (A) (A) (A) (A)
                 (A) (A) (A) (A) (A) (A) (A) (A) (A) (A) (A) (A)
                 (A) (A) (A) (A) (A) (A) (A) (A) (A) (A) (A) (A)
                 (A) (A) (A) (A) (A) (A) (A) (A) (A) (A) (A) (A)
                 (A) (A) (A) (A) (A) (A) (A) (A) (A) (A) (A) (A)
                 (A) (A) (A)
       Virtual   (A) (A) (A) (A) (A) (A) (A) (A) (A) (A) (A) (A)
                 (A) (A) (A) (A) (A) (A) (A) (A) (A) (A) (A) (A)
                 (A) (A) (A) (A) (A) (A) (A) (A) (A) (A) (A) (A)
                 (A) (A) (A) (A) (A) (A) (A) (A) (A) (A) (A) (A)
                 (A) (A) (A) (A) (A) (A) (A) (A) (A) (A) (A) (A)
                 (A) (A) (A) (A) (A) (A) (A) (A) (A) (A) (A) (A)
                 (A) (A) (A) (A) (A) (A) (A) (A) (A) (A) (A) (A)
                 (A) (A) (A) (A) (A) (A) (A) (A) (A) (A) (A) (A)
                 (A) (A) (A) (A) (A) (A) (A) (A) (A) (A) (A) (A)
                 (A) (A) (A) (A) (A) (A) (A) (A) (A) (A) (A) (A)
                 (A) (A) (A) (A) (A) (A) (A) (A) (A) (A) (A) (A)
                 (A) (A) (A) (A) (A) (A) (A) (A) (A) (A) (A) (A)
                 (A) (A) (A) (A) (A) (A) (A) (A) (A) (A) (A) (A)
                 (A) (A) (A) (A) (A) (A) (A) (A) (A) (A) (A) (A)
                 (A) (A) (A) (A) (A) (A) (A) (A) (A) (A) (A) (A)
                 (A) (A) (A) (A) (A) (A) (A) (A) (A) (A) (A) (A)
                 (A) (A) (A) (A) (A) (A) (A) (A) (A) (A) (A) (A)
                 (A) (A) (A) (A) (A) (A) (A) (A) (A) (A) (A) (A)
                 (A) (A) (A) (A) (A) (A) (A) (A) (A) (A) (A) (A)
                 (A) (A) (A) (A) (A) (A) (A) (A) (A) (A) (A) (A)
                 (A) (A) (A) (A) (A) (A) (A) (A) (A) (A) (A) (A)
                 (A) (A) (A) (A) (A) (A) (A) (A) (A) (A) (A) (A)
                 (A) (A) (A) (A) (A) (A) (A) (A) (A) (A) (A) (A)
                 (A) (A) (A) (A) (A) (A) (A) (A) (A) (A) (A) (A)
                 (A) (A) (A) (A) (A) (A) (A) (A) (A) (A) (A) (A)
                 (A) (A) (A) (A) (A) (A) (A) (A) (A) (A) (A) (A)
                 (A) (A) (A) (A) (A) (A) (A) (A) (A) (A) (A) (A)
                 (A) (A) (A) (A) (A) (A) (A) (A) (A) (A) (A) (A)
                 (A) (A) (A) (A) (A) (A) (A) (A) (A) (A) (A) (A)
                 (A) (A) (A) (A) (A) (A) (A) (A) (A) (A) (A) (A)
                 (A) (A) (A) (A) (A) (A) (A) (A) (A) (A) (A) (A)
                 (A) (A) (A) (A) (A) (A) (A) (A) (A) (A) (A) (A)
                 (A) (A) (A) (A) (A) (A) (A) (A) (A) (A) (A) (A)
                 (A) (A) (A) (A) (A) (A) (A) (A) (A) (A) (A) (A)
                 (A) (A) (A) (A) (A) (A) (A) (A) (A) (A) (A) (A)
                 (A) (A) (A) (A) (A) (A) (A) (A) (A) (A) (A) (A)
                 (A) (A) (A) (A) (A) (A) (A) (A) (A) (A) (A) (A)
                 (A) (A) (A) (A) (A) (A) (A) (A) (A) (A) (A) (A)
                 (A) (A) (A) (A) (A) (A) (A) (A) (A) (A) (A) (A)
                 (A) (A) (A) (A) (A) (A) (A) (A) (A) (A) (A) (A)
                 (A) (A) (A) (A) (A) (A) (A) (A) (A) (A) (A) (A)
                 (A) (A) (A) (A) (A) (A) (A) (A) (A) (A) (A) (A)
                 (A) (A) (A) (A) (A) (A) (A) (A) (A) (A) (A) (A)
                 (A) (A) (A) (A) (A) (A) (A) (A) (A) (A) (A) (A)
                 (A) (A) (A) (A) (A) (A) (A) (A) (A) (A) (A) (A)
                 (A) (A) (A) (A) (A) (A) (A) (A) (A) (A) (A) (A)
                 (A) (A) (A) (A) (A) (A) (A) (A) (A) (A) (A) (A)
                 (A) (A) (A) (A) (A) (A) (A) (A) (A) (A) (A) (A)
                 (A) (A) (A) (A) (A) (A) (A) (A) (A) (A) (A) (A)
                 (A) (A) (A) (A) (A) (A) (A) (A) (A) (A) (A) (A)
                 (A) (A) (A) (A) (A) (A) (A) (A) (A) (A) (A) (A)
                 (A) (A) (A) (A) (A) (A) (A) (A) (A) (A) (A) (A)
                 (A) (A) (A) (A) (A) (A) (A) (A) (A) (A)
 Beta  Orbitals:
       Occupied  (A) (A) (A) (A) (A) (A) (A) (A) (A) (A) (A) (A)
                 (A) (A) (A) (A) (A) (A) (A) (A) (A) (A) (A) (A)
                 (A) (A) (A) (A) (A) (A) (A) (A) (A) (A) (A) (A)
                 (A) (A) (A) (A) (A) (A) (A) (A) (A) (A) (A) (A)
                 (A) (A) (A) (A) (A) (A) (A) (A) (A) (A) (A) (A)
                 (A) (A) (A) (A) (A) (A) (A) (A) (A) (A) (A) (A)
                 (A) (A)
       Virtual   (A) (A) (A) (A) (A) (A) (A) (A) (A) (A) (A) (A)
                 (A) (A) (A) (A) (A) (A) (A) (A) (A) (A) (A) (A)
                 (A) (A) (A) (A) (A) (A) (A) (A) (A) (A) (A) (A)
                 (A) (A) (A) (A) (A) (A) (A) (A) (A) (A) (A) (A)
                 (A) (A) (A) (A) (A) (A) (A) (A) (A) (A) (A) (A)
                 (A) (A) (A) (A) (A) (A) (A) (A) (A) (A) (A) (A)
                 (A) (A) (A) (A) (A) (A) (A) (A) (A) (A) (A) (A)
                 (A) (A) (A) (A) (A) (A) (A) (A) (A) (A) (A) (A)
                 (A) (A) (A) (A) (A) (A) (A) (A) (A) (A) (A) (A)
                 (A) (A) (A) (A) (A) (A) (A) (A) (A) (A) (A) (A)
                 (A) (A) (A) (A) (A) (A) (A) (A) (A) (A) (A) (A)
                 (A) (A) (A) (A) (A) (A) (A) (A) (A) (A) (A) (A)
                 (A) (A) (A) (A) (A) (A) (A) (A) (A) (A) (A) (A)
                 (A) (A) (A) (A) (A) (A) (A) (A) (A) (A) (A) (A)
                 (A) (A) (A) (A) (A) (A) (A) (A) (A) (A) (A) (A)
                 (A) (A) (A) (A) (A) (A) (A) (A) (A) (A) (A) (A)
                 (A) (A) (A) (A) (A) (A) (A) (A) (A) (A) (A) (A)
                 (A) (A) (A) (A) (A) (A) (A) (A) (A) (A) (A) (A)
                 (A) (A) (A) (A) (A) (A) (A) (A) (A) (A) (A) (A)
                 (A) (A) (A) (A) (A) (A) (A) (A) (A) (A) (A) (A)
                 (A) (A) (A) (A) (A) (A) (A) (A) (A) (A) (A) (A)
                 (A) (A) (A) (A) (A) (A) (A) (A) (A) (A) (A) (A)
                 (A) (A) (A) (A) (A) (A) (A) (A) (A) (A) (A) (A)
                 (A) (A) (A) (A) (A) (A) (A) (A) (A) (A) (A) (A)
                 (A) (A) (A) (A) (A) (A) (A) (A) (A) (A) (A) (A)
                 (A) (A) (A) (A) (A) (A) (A) (A) (A) (A) (A) (A)
                 (A) (A) (A) (A) (A) (A) (A) (A) (A) (A) (A) (A)
                 (A) (A) (A) (A) (A) (A) (A) (A) (A) (A) (A) (A)
                 (A) (A) (A) (A) (A) (A) (A) (A) (A) (A) (A) (A)
                 (A) (A) (A) (A) (A) (A) (A) (A) (A) (A) (A) (A)
                 (A) (A) (A) (A) (A) (A) (A) (A) (A) (A) (A) (A)
                 (A) (A) (A) (A) (A) (A) (A) (A) (A) (A) (A) (A)
                 (A) (A) (A) (A) (A) (A) (A) (A) (A) (A) (A) (A)
                 (A) (A) (A) (A) (A) (A) (A) (A) (A) (A) (A) (A)
                 (A) (A) (A) (A) (A) (A) (A) (A) (A) (A) (A) (A)
                 (A) (A) (A) (A) (A) (A) (A) (A) (A) (A) (A) (A)
                 (A) (A) (A) (A) (A) (A) (A) (A) (A) (A) (A) (A)
                 (A) (A) (A) (A) (A) (A) (A) (A) (A) (A) (A) (A)
                 (A) (A) (A) (A) (A) (A) (A) (A) (A) (A) (A) (A)
                 (A) (A) (A) (A) (A) (A) (A) (A) (A) (A) (A) (A)
                 (A) (A) (A) (A) (A) (A) (A) (A) (A) (A) (A) (A)
                 (A) (A) (A) (A) (A) (A) (A) (A) (A) (A) (A) (A)
                 (A) (A) (A) (A) (A) (A) (A) (A) (A) (A) (A) (A)
                 (A) (A) (A) (A) (A) (A) (A) (A) (A) (A) (A) (A)
                 (A) (A) (A) (A) (A) (A) (A) (A) (A) (A) (A) (A)
                 (A) (A) (A) (A) (A) (A) (A) (A) (A) (A) (A) (A)
                 (A) (A) (A) (A) (A) (A) (A) (A) (A) (A) (A) (A)
                 (A) (A) (A) (A) (A) (A) (A) (A) (A) (A) (A) (A)
                 (A) (A) (A) (A) (A) (A) (A) (A) (A) (A) (A) (A)
                 (A) (A) (A) (A) (A) (A) (A) (A) (A) (A) (A) (A)
                 (A) (A) (A) (A) (A) (A) (A) (A) (A) (A) (A) (A)
                 (A) (A) (A) (A) (A) (A) (A) (A) (A) (A) (A) (A)
                 (A) (A) (A) (A) (A) (A) (A) (A) (A) (A) (A)
 The electronic state is 2-A.
 Alpha  occ. eigenvalues --  -90.08530 -19.63748 -19.63314 -14.80756 -14.75477
 Alpha  occ. eigenvalues --  -10.64866 -10.59986 -10.58554 -10.58037 -10.57943
 Alpha  occ. eigenvalues --  -10.56683 -10.56035 -10.55960 -10.55449 -10.55380
 Alpha  occ. eigenvalues --  -10.55126 -10.54071 -10.53201 -10.52220  -8.41889
 Alpha  occ. eigenvalues --   -6.34069  -6.33878  -6.33857  -1.23186  -1.14289
 Alpha  occ. eigenvalues --   -1.13150  -1.01781  -0.97291  -0.94672  -0.89613
 Alpha  occ. eigenvalues --   -0.86226  -0.85411  -0.82828  -0.81847  -0.76802
 Alpha  occ. eigenvalues --   -0.75537  -0.70245  -0.69191  -0.68173  -0.67499
 Alpha  occ. eigenvalues --   -0.65807  -0.61078  -0.59840  -0.59033  -0.58308
 Alpha  occ. eigenvalues --   -0.55904  -0.55514  -0.54134  -0.52715  -0.52202
 Alpha  occ. eigenvalues --   -0.51555  -0.51116  -0.50927  -0.49779  -0.49166
 Alpha  occ. eigenvalues --   -0.48061  -0.47262  -0.46856  -0.45044  -0.44290
 Alpha  occ. eigenvalues --   -0.43546  -0.43066  -0.42292  -0.41899  -0.41338
 Alpha  occ. eigenvalues --   -0.40278  -0.39926  -0.39803  -0.39120  -0.38255
 Alpha  occ. eigenvalues --   -0.38123  -0.36651  -0.33970  -0.30159  -0.23142
 Alpha virt. eigenvalues --    0.01370   0.02609   0.05530   0.06231   0.07328
 Alpha virt. eigenvalues --    0.07781   0.08194   0.09140   0.09244   0.10518
 Alpha virt. eigenvalues --    0.10990   0.11375   0.11866   0.12231   0.12802
 Alpha virt. eigenvalues --    0.13378   0.13728   0.13878   0.14505   0.14997
 Alpha virt. eigenvalues --    0.15448   0.15779   0.17068   0.17753   0.17902
 Alpha virt. eigenvalues --    0.18662   0.18790   0.19202   0.19860   0.19992
 Alpha virt. eigenvalues --    0.21164   0.21893   0.22087   0.22822   0.23074
 Alpha virt. eigenvalues --    0.23856   0.24034   0.24923   0.25054   0.25246
 Alpha virt. eigenvalues --    0.26100   0.26805   0.27048   0.27903   0.28154
 Alpha virt. eigenvalues --    0.28629   0.29820   0.30347   0.30885   0.31412
 Alpha virt. eigenvalues --    0.31788   0.32490   0.33021   0.33493   0.34131
 Alpha virt. eigenvalues --    0.34596   0.35911   0.36034   0.36646   0.36920
 Alpha virt. eigenvalues --    0.37782   0.38339   0.38932   0.39476   0.39697
 Alpha virt. eigenvalues --    0.40271   0.41078   0.41267   0.41820   0.42551
 Alpha virt. eigenvalues --    0.43206   0.43441   0.43514   0.43784   0.44302
 Alpha virt. eigenvalues --    0.44843   0.45012   0.45365   0.45779   0.45997
 Alpha virt. eigenvalues --    0.46421   0.47031   0.47829   0.48105   0.48438
 Alpha virt. eigenvalues --    0.49116   0.49285   0.49430   0.49602   0.50310
 Alpha virt. eigenvalues --    0.50451   0.50826   0.51721   0.51892   0.52075
 Alpha virt. eigenvalues --    0.52764   0.53314   0.53491   0.54275   0.54751
 Alpha virt. eigenvalues --    0.55220   0.55555   0.56298   0.56591   0.56994
 Alpha virt. eigenvalues --    0.58193   0.58486   0.59419   0.60912   0.61467
 Alpha virt. eigenvalues --    0.61602   0.62847   0.63252   0.64400   0.65751
 Alpha virt. eigenvalues --    0.66258   0.66849   0.67136   0.68426   0.69078
 Alpha virt. eigenvalues --    0.69900   0.70686   0.71990   0.72330   0.73072
 Alpha virt. eigenvalues --    0.74517   0.74744   0.75550   0.75901   0.76494
 Alpha virt. eigenvalues --    0.77123   0.78575   0.79159   0.79992   0.80920
 Alpha virt. eigenvalues --    0.81772   0.82727   0.83461   0.84299   0.84951
 Alpha virt. eigenvalues --    0.85889   0.86411   0.87433   0.87963   0.88912
 Alpha virt. eigenvalues --    0.89356   0.90365   0.90870   0.91564   0.93148
 Alpha virt. eigenvalues --    0.93511   0.93799   0.94574   0.95988   0.96644
 Alpha virt. eigenvalues --    0.96955   0.98027   0.98481   0.99195   0.99979
 Alpha virt. eigenvalues --    1.01437   1.01817   1.02979   1.03695   1.04003
 Alpha virt. eigenvalues --    1.05812   1.06867   1.07145   1.08321   1.08862
 Alpha virt. eigenvalues --    1.09548   1.10522   1.11483   1.12279   1.12848
 Alpha virt. eigenvalues --    1.13965   1.14735   1.14807   1.15891   1.17035
 Alpha virt. eigenvalues --    1.17489   1.18196   1.19500   1.20061   1.20375
 Alpha virt. eigenvalues --    1.21592   1.22699   1.24269   1.24736   1.26441
 Alpha virt. eigenvalues --    1.27313   1.28229   1.28664   1.30502   1.30628
 Alpha virt. eigenvalues --    1.30946   1.31463   1.33152   1.33719   1.35191
 Alpha virt. eigenvalues --    1.36302   1.36961   1.38571   1.40428   1.41930
 Alpha virt. eigenvalues --    1.42929   1.44318   1.44436   1.45026   1.47330
 Alpha virt. eigenvalues --    1.47782   1.47917   1.48403   1.50034   1.50419
 Alpha virt. eigenvalues --    1.51598   1.51730   1.52688   1.53994   1.54577
 Alpha virt. eigenvalues --    1.56134   1.56308   1.57185   1.58175   1.58587
 Alpha virt. eigenvalues --    1.58921   1.59625   1.60593   1.61444   1.61791
 Alpha virt. eigenvalues --    1.62387   1.62434   1.62931   1.63332   1.64665
 Alpha virt. eigenvalues --    1.65083   1.66118   1.66467   1.67564   1.67953
 Alpha virt. eigenvalues --    1.68347   1.68860   1.69265   1.70621   1.71099
 Alpha virt. eigenvalues --    1.71625   1.73350   1.73697   1.73960   1.74953
 Alpha virt. eigenvalues --    1.76061   1.77030   1.77328   1.78234   1.79664
 Alpha virt. eigenvalues --    1.80529   1.80836   1.81366   1.82293   1.82913
 Alpha virt. eigenvalues --    1.84527   1.85708   1.86440   1.87769   1.88114
 Alpha virt. eigenvalues --    1.88793   1.89485   1.90148   1.91076   1.92323
 Alpha virt. eigenvalues --    1.93078   1.94245   1.95557   1.96937   1.97768
 Alpha virt. eigenvalues --    1.98586   1.99921   2.00279   2.01724   2.02313
 Alpha virt. eigenvalues --    2.03111   2.04692   2.05054   2.06157   2.06727
 Alpha virt. eigenvalues --    2.08029   2.09273   2.10654   2.12670   2.13451
 Alpha virt. eigenvalues --    2.13881   2.15519   2.16143   2.16638   2.18666
 Alpha virt. eigenvalues --    2.19073   2.20533   2.20686   2.21977   2.22169
 Alpha virt. eigenvalues --    2.23188   2.24734   2.25079   2.25881   2.26414
 Alpha virt. eigenvalues --    2.27953   2.28935   2.29274   2.30553   2.31445
 Alpha virt. eigenvalues --    2.32757   2.34136   2.34245   2.35234   2.35814
 Alpha virt. eigenvalues --    2.36968   2.37234   2.37792   2.39203   2.40934
 Alpha virt. eigenvalues --    2.41494   2.42050   2.42343   2.43479   2.44209
 Alpha virt. eigenvalues --    2.45058   2.46226   2.47168   2.47476   2.48009
 Alpha virt. eigenvalues --    2.48478   2.50923   2.50947   2.51497   2.52693
 Alpha virt. eigenvalues --    2.53722   2.54723   2.55608   2.56389   2.56882
 Alpha virt. eigenvalues --    2.57533   2.58170   2.58879   2.59597   2.60020
 Alpha virt. eigenvalues --    2.60355   2.61704   2.62145   2.62317   2.62683
 Alpha virt. eigenvalues --    2.63220   2.64346   2.65104   2.65220   2.66285
 Alpha virt. eigenvalues --    2.66960   2.67766   2.68102   2.69056   2.69233
 Alpha virt. eigenvalues --    2.69952   2.71043   2.71418   2.72337   2.72868
 Alpha virt. eigenvalues --    2.73780   2.74283   2.75561   2.75705   2.76646
 Alpha virt. eigenvalues --    2.77606   2.77967   2.79208   2.80031   2.80364
 Alpha virt. eigenvalues --    2.81695   2.82300   2.83280   2.84744   2.85178
 Alpha virt. eigenvalues --    2.86266   2.87530   2.88129   2.89887   2.90694
 Alpha virt. eigenvalues --    2.92974   2.93963   2.95461   2.95971   2.97341
 Alpha virt. eigenvalues --    2.97857   2.99033   2.99723   3.00633   3.01560
 Alpha virt. eigenvalues --    3.02744   3.03522   3.04730   3.05387   3.07831
 Alpha virt. eigenvalues --    3.08356   3.08581   3.10076   3.11356   3.12013
 Alpha virt. eigenvalues --    3.12260   3.12679   3.13455   3.14040   3.14622
 Alpha virt. eigenvalues --    3.15147   3.15443   3.16582   3.17570   3.18244
 Alpha virt. eigenvalues --    3.18615   3.19726   3.20023   3.20269   3.22038
 Alpha virt. eigenvalues --    3.22459   3.22940   3.24465   3.25469   3.25886
 Alpha virt. eigenvalues --    3.26211   3.26742   3.27921   3.28519   3.29165
 Alpha virt. eigenvalues --    3.29824   3.30603   3.31183   3.32251   3.32680
 Alpha virt. eigenvalues --    3.33134   3.33555   3.34889   3.35883   3.36122
 Alpha virt. eigenvalues --    3.36986   3.37523   3.37977   3.38709   3.38775
 Alpha virt. eigenvalues --    3.39710   3.40147   3.41772   3.42211   3.42691
 Alpha virt. eigenvalues --    3.43615   3.44707   3.45157   3.47002   3.47649
 Alpha virt. eigenvalues --    3.48068   3.48703   3.49228   3.50507   3.51270
 Alpha virt. eigenvalues --    3.52023   3.52658   3.53725   3.54649   3.55570
 Alpha virt. eigenvalues --    3.56727   3.57381   3.57852   3.59110   3.59689
 Alpha virt. eigenvalues --    3.60057   3.60447   3.61416   3.62410   3.63582
 Alpha virt. eigenvalues --    3.64999   3.66388   3.66746   3.68963   3.69829
 Alpha virt. eigenvalues --    3.70846   3.71923   3.73340   3.74232   3.75695
 Alpha virt. eigenvalues --    3.77129   3.78655   3.81454   3.84442   3.85090
 Alpha virt. eigenvalues --    3.85924   3.86288   3.89026   3.89936   3.90455
 Alpha virt. eigenvalues --    3.92097   3.92630   3.93672   3.93986   3.94873
 Alpha virt. eigenvalues --    3.98373   3.98439   4.00100   4.02144   4.02385
 Alpha virt. eigenvalues --    4.03305   4.05241   4.07297   4.08017   4.09259
 Alpha virt. eigenvalues --    4.09892   4.10711   4.11172   4.11427   4.14561
 Alpha virt. eigenvalues --    4.15285   4.16683   4.17094   4.18559   4.20145
 Alpha virt. eigenvalues --    4.21531   4.22112   4.23382   4.26663   4.27893
 Alpha virt. eigenvalues --    4.28409   4.30681   4.31942   4.32851   4.35855
 Alpha virt. eigenvalues --    4.37145   4.38151   4.39294   4.40584   4.42213
 Alpha virt. eigenvalues --    4.44200   4.45868   4.48367   4.51284   4.51339
 Alpha virt. eigenvalues --    4.55618   4.56322   4.57288   4.60945   4.62342
 Alpha virt. eigenvalues --    4.63795   4.65509   4.67903   4.68523   4.71106
 Alpha virt. eigenvalues --    4.71810   4.73055   4.79187   4.79814   4.82585
 Alpha virt. eigenvalues --    4.83751   4.85272   4.87045   4.88551   4.93146
 Alpha virt. eigenvalues --    4.95450   4.98134   5.02325   5.04408   5.06115
 Alpha virt. eigenvalues --    5.08043   5.12293   5.13778   5.16008   5.16387
 Alpha virt. eigenvalues --    5.16773   5.17118   5.18506   5.18725   5.19146
 Alpha virt. eigenvalues --    5.22220   5.23596   5.24988   5.25596   5.26531
 Alpha virt. eigenvalues --    5.29733   5.30375   5.32536   5.35290   5.42205
 Alpha virt. eigenvalues --    5.42541   5.46614   5.47873   5.50620   5.52967
 Alpha virt. eigenvalues --    5.56590   5.57767   5.60577   5.62423   5.70255
 Alpha virt. eigenvalues --    5.72693   5.73218   5.77290   5.85699   5.96336
 Alpha virt. eigenvalues --    6.07489   6.22730   6.31907   6.34603   6.38430
 Alpha virt. eigenvalues --    6.46749   6.67255   6.76057   6.77641   6.78666
 Alpha virt. eigenvalues --    6.86697   6.92781   9.46276   9.63803   9.75702
 Alpha virt. eigenvalues --   21.85465  22.41666  22.44056  22.48199  22.59588
 Alpha virt. eigenvalues --   22.63915  22.65114  22.68511  22.69567  22.74655
 Alpha virt. eigenvalues --   22.84216  22.92295  22.99410  23.28525  23.60156
 Alpha virt. eigenvalues --   32.78008  33.20293  43.87206  44.10638
  Beta  occ. eigenvalues --  -90.08360 -19.63680 -19.63227 -14.80547 -14.75034
  Beta  occ. eigenvalues --  -10.64951 -10.59895 -10.58605 -10.58011 -10.57954
  Beta  occ. eigenvalues --  -10.56640 -10.56036 -10.55844 -10.55493 -10.55309
  Beta  occ. eigenvalues --  -10.55144 -10.54075 -10.53200 -10.52219  -8.41794
  Beta  occ. eigenvalues --   -6.33822  -6.33811  -6.33671  -1.22862  -1.13604
  Beta  occ. eigenvalues --   -1.12831  -1.00766  -0.97007  -0.94360  -0.89542
  Beta  occ. eigenvalues --   -0.85996  -0.85147  -0.82529  -0.81522  -0.76397
  Beta  occ. eigenvalues --   -0.75261  -0.69901  -0.68788  -0.67868  -0.67314
  Beta  occ. eigenvalues --   -0.65554  -0.60549  -0.59516  -0.58746  -0.57995
  Beta  occ. eigenvalues --   -0.55585  -0.55203  -0.53820  -0.52477  -0.52068
  Beta  occ. eigenvalues --   -0.51106  -0.50868  -0.50705  -0.49452  -0.48388
  Beta  occ. eigenvalues --   -0.47954  -0.47062  -0.46564  -0.44934  -0.44120
  Beta  occ. eigenvalues --   -0.43203  -0.42670  -0.41763  -0.41421  -0.40794
  Beta  occ. eigenvalues --   -0.39855  -0.39690  -0.39526  -0.38686  -0.37851
  Beta  occ. eigenvalues --   -0.36804  -0.35562  -0.32259  -0.28391
  Beta virt. eigenvalues --   -0.09672   0.02771   0.04073   0.05541   0.06384
  Beta virt. eigenvalues --    0.07378   0.07809   0.08470   0.09183   0.09513
  Beta virt. eigenvalues --    0.10615   0.11028   0.11702   0.12127   0.12246
  Beta virt. eigenvalues --    0.12858   0.13347   0.13758   0.13955   0.14510
  Beta virt. eigenvalues --    0.15019   0.15418   0.15796   0.17095   0.17709
  Beta virt. eigenvalues --    0.17930   0.18688   0.18859   0.19199   0.19845
  Beta virt. eigenvalues --    0.20495   0.21157   0.21860   0.22017   0.22770
  Beta virt. eigenvalues --    0.23055   0.23938   0.23994   0.24924   0.25174
  Beta virt. eigenvalues --    0.25266   0.25987   0.26736   0.27147   0.28024
  Beta virt. eigenvalues --    0.28156   0.28759   0.29866   0.30339   0.30965
  Beta virt. eigenvalues --    0.31479   0.31834   0.32508   0.33069   0.33498
  Beta virt. eigenvalues --    0.34237   0.34644   0.35860   0.36081   0.36637
  Beta virt. eigenvalues --    0.36886   0.37833   0.38329   0.38991   0.39563
  Beta virt. eigenvalues --    0.39738   0.40373   0.41172   0.41326   0.41962
  Beta virt. eigenvalues --    0.42528   0.43280   0.43489   0.43646   0.43878
  Beta virt. eigenvalues --    0.44429   0.44847   0.45064   0.45465   0.45868
  Beta virt. eigenvalues --    0.46087   0.46431   0.47039   0.47856   0.48098
  Beta virt. eigenvalues --    0.48504   0.49143   0.49293   0.49440   0.49636
  Beta virt. eigenvalues --    0.50337   0.50526   0.50985   0.51734   0.51949
  Beta virt. eigenvalues --    0.52114   0.52905   0.53361   0.53600   0.54339
  Beta virt. eigenvalues --    0.54872   0.55299   0.55616   0.56435   0.56741
  Beta virt. eigenvalues --    0.56977   0.58302   0.58559   0.59410   0.60932
  Beta virt. eigenvalues --    0.61565   0.61710   0.62961   0.63272   0.64402
  Beta virt. eigenvalues --    0.65680   0.66206   0.66812   0.67213   0.68498
  Beta virt. eigenvalues --    0.69188   0.70092   0.70690   0.72119   0.72349
  Beta virt. eigenvalues --    0.73303   0.74600   0.74742   0.75606   0.76087
  Beta virt. eigenvalues --    0.76547   0.77222   0.78756   0.79163   0.80135
  Beta virt. eigenvalues --    0.81030   0.81790   0.82858   0.83555   0.84511
  Beta virt. eigenvalues --    0.85144   0.86037   0.86525   0.87547   0.88079
  Beta virt. eigenvalues --    0.89061   0.89491   0.90491   0.90909   0.91658
  Beta virt. eigenvalues --    0.93258   0.93594   0.93827   0.94684   0.96099
  Beta virt. eigenvalues --    0.96739   0.96991   0.98066   0.98703   0.99251
  Beta virt. eigenvalues --    1.00039   1.01519   1.01881   1.03066   1.03792
  Beta virt. eigenvalues --    1.04065   1.05887   1.06945   1.07193   1.08333
  Beta virt. eigenvalues --    1.08890   1.09697   1.10581   1.11593   1.12378
  Beta virt. eigenvalues --    1.12949   1.14076   1.14804   1.14892   1.16029
  Beta virt. eigenvalues --    1.17106   1.17640   1.18304   1.19615   1.20195
  Beta virt. eigenvalues --    1.20431   1.21707   1.22802   1.24370   1.24806
  Beta virt. eigenvalues --    1.26551   1.27404   1.28384   1.28865   1.30624
  Beta virt. eigenvalues --    1.30844   1.30991   1.31570   1.33275   1.33803
  Beta virt. eigenvalues --    1.35372   1.36579   1.37134   1.38649   1.40599
  Beta virt. eigenvalues --    1.42113   1.43013   1.44480   1.44533   1.45116
  Beta virt. eigenvalues --    1.47565   1.47888   1.48122   1.48722   1.50328
  Beta virt. eigenvalues --    1.50697   1.51939   1.52086   1.53057   1.54194
  Beta virt. eigenvalues --    1.55058   1.56255   1.56565   1.57385   1.58357
  Beta virt. eigenvalues --    1.58610   1.59036   1.59685   1.60684   1.61597
  Beta virt. eigenvalues --    1.61930   1.62462   1.62584   1.63000   1.63478
  Beta virt. eigenvalues --    1.64795   1.65148   1.66225   1.66514   1.67840
  Beta virt. eigenvalues --    1.68265   1.68511   1.69112   1.69772   1.70885
  Beta virt. eigenvalues --    1.71246   1.71739   1.73528   1.73880   1.74279
  Beta virt. eigenvalues --    1.75034   1.76327   1.77261   1.77602   1.78405
  Beta virt. eigenvalues --    1.79760   1.80657   1.81218   1.81654   1.82488
  Beta virt. eigenvalues --    1.83101   1.84647   1.85789   1.86696   1.87980
  Beta virt. eigenvalues --    1.88321   1.88935   1.89920   1.90350   1.91428
  Beta virt. eigenvalues --    1.92382   1.93209   1.94378   1.95690   1.97048
  Beta virt. eigenvalues --    1.97878   1.98679   2.00008   2.00452   2.01842
  Beta virt. eigenvalues --    2.02491   2.03307   2.04871   2.05267   2.06384
  Beta virt. eigenvalues --    2.06901   2.08171   2.09440   2.10827   2.12814
  Beta virt. eigenvalues --    2.13567   2.14091   2.15660   2.16263   2.16764
  Beta virt. eigenvalues --    2.18800   2.19207   2.20692   2.20879   2.22101
  Beta virt. eigenvalues --    2.22409   2.23443   2.25061   2.25294   2.26085
  Beta virt. eigenvalues --    2.26718   2.28311   2.29028   2.29585   2.30843
  Beta virt. eigenvalues --    2.31551   2.32900   2.34333   2.34435   2.35453
  Beta virt. eigenvalues --    2.36071   2.37211   2.37651   2.38017   2.39344
  Beta virt. eigenvalues --    2.41061   2.41613   2.42222   2.42683   2.43561
  Beta virt. eigenvalues --    2.44577   2.45287   2.46374   2.47383   2.47569
  Beta virt. eigenvalues --    2.48141   2.48607   2.51152   2.51302   2.51629
  Beta virt. eigenvalues --    2.52810   2.53888   2.54814   2.55812   2.56491
  Beta virt. eigenvalues --    2.57142   2.57661   2.58340   2.59101   2.59680
  Beta virt. eigenvalues --    2.60200   2.60458   2.61884   2.62417   2.62497
  Beta virt. eigenvalues --    2.62822   2.63702   2.64414   2.65439   2.65508
  Beta virt. eigenvalues --    2.66620   2.67446   2.67977   2.68438   2.69390
  Beta virt. eigenvalues --    2.69723   2.70347   2.71302   2.71906   2.72684
  Beta virt. eigenvalues --    2.73146   2.74111   2.74780   2.75798   2.76393
  Beta virt. eigenvalues --    2.76934   2.77780   2.78156   2.79456   2.80347
  Beta virt. eigenvalues --    2.80556   2.82260   2.82756   2.83701   2.85121
  Beta virt. eigenvalues --    2.85577   2.86373   2.87782   2.88440   2.90173
  Beta virt. eigenvalues --    2.91190   2.93206   2.94150   2.95756   2.96544
  Beta virt. eigenvalues --    2.97587   2.98127   2.99298   3.00005   3.00811
  Beta virt. eigenvalues --    3.01963   3.02908   3.03758   3.05117   3.05512
  Beta virt. eigenvalues --    3.07928   3.08532   3.08873   3.10414   3.11560
  Beta virt. eigenvalues --    3.12309   3.12548   3.13101   3.13733   3.14332
  Beta virt. eigenvalues --    3.14886   3.15522   3.15808   3.16870   3.17794
  Beta virt. eigenvalues --    3.18375   3.18856   3.20017   3.20281   3.20406
  Beta virt. eigenvalues --    3.22322   3.22700   3.23171   3.24717   3.25658
  Beta virt. eigenvalues --    3.26153   3.26346   3.26856   3.28025   3.28650
  Beta virt. eigenvalues --    3.29642   3.30154   3.30777   3.31359   3.32444
  Beta virt. eigenvalues --    3.32926   3.33315   3.33740   3.35213   3.36120
  Beta virt. eigenvalues --    3.36565   3.37309   3.37939   3.38307   3.38911
  Beta virt. eigenvalues --    3.39097   3.40232   3.40276   3.42083   3.42449
  Beta virt. eigenvalues --    3.42960   3.43997   3.45046   3.45398   3.47294
  Beta virt. eigenvalues --    3.47838   3.48259   3.48923   3.49499   3.50814
  Beta virt. eigenvalues --    3.51617   3.52262   3.52847   3.54002   3.54938
  Beta virt. eigenvalues --    3.55895   3.56810   3.57687   3.58042   3.59303
  Beta virt. eigenvalues --    3.60107   3.60325   3.60794   3.61610   3.62556
  Beta virt. eigenvalues --    3.63791   3.65279   3.66578   3.67133   3.69099
  Beta virt. eigenvalues --    3.70297   3.70993   3.72037   3.73623   3.74533
  Beta virt. eigenvalues --    3.75903   3.77277   3.78850   3.81643   3.84575
  Beta virt. eigenvalues --    3.85143   3.86056   3.86460   3.89192   3.90222
  Beta virt. eigenvalues --    3.90740   3.92355   3.92892   3.93838   3.94613
  Beta virt. eigenvalues --    3.95115   3.98475   3.98807   4.00229   4.02391
  Beta virt. eigenvalues --    4.02605   4.03823   4.05613   4.07744   4.08674
  Beta virt. eigenvalues --    4.09739   4.10412   4.11294   4.11673   4.11777
  Beta virt. eigenvalues --    4.15183   4.15984   4.17221   4.17657   4.18753
  Beta virt. eigenvalues --    4.20625   4.21773   4.22432   4.23953   4.26942
  Beta virt. eigenvalues --    4.28204   4.28781   4.30842   4.32005   4.33121
  Beta virt. eigenvalues --    4.36042   4.37813   4.38439   4.39805   4.40967
  Beta virt. eigenvalues --    4.42577   4.44542   4.46139   4.48709   4.51581
  Beta virt. eigenvalues --    4.52105   4.56036   4.56549   4.57376   4.61268
  Beta virt. eigenvalues --    4.62505   4.64571   4.65690   4.68186   4.69256
  Beta virt. eigenvalues --    4.71517   4.73720   4.73979   4.80570   4.80852
  Beta virt. eigenvalues --    4.84433   4.84750   4.86897   4.87504   4.89114
  Beta virt. eigenvalues --    4.93896   4.97259   4.98851   5.03542   5.05758
  Beta virt. eigenvalues --    5.06948   5.08453   5.13398   5.14874   5.16099
  Beta virt. eigenvalues --    5.16708   5.16939   5.17332   5.18734   5.19233
  Beta virt. eigenvalues --    5.19946   5.22531   5.24506   5.25876   5.26392
  Beta virt. eigenvalues --    5.27115   5.29891   5.30605   5.32907   5.36626
  Beta virt. eigenvalues --    5.43020   5.43926   5.47298   5.48964   5.50781
  Beta virt. eigenvalues --    5.53119   5.57169   5.58125   5.60632   5.62607
  Beta virt. eigenvalues --    5.70753   5.72771   5.73317   5.77590   5.85672
  Beta virt. eigenvalues --    5.96521   6.07559   6.22881   6.32120   6.34839
  Beta virt. eigenvalues --    6.38693   6.46998   6.67499   6.76142   6.77905
  Beta virt. eigenvalues --    6.78765   6.86861   6.92921   9.46901   9.64126
  Beta virt. eigenvalues --    9.75934  21.85626  22.41773  22.44074  22.48238
  Beta virt. eigenvalues --   22.59587  22.63920  22.65183  22.68513  22.69739
  Beta virt. eigenvalues --   22.74736  22.84249  22.92267  22.99586  23.28557
  Beta virt. eigenvalues --   23.60421  32.78254  33.20276  43.87191  44.10622
          Condensed to atoms (all electrons):
               1          2          3          4          5          6
     1  C    5.238498   0.247395   0.154991  -0.175997   0.032858   0.450336
     2  C    0.247395   5.199734   0.082977   0.128081  -0.116630   0.027033
     3  C    0.154991   0.082977   5.576739   0.165336   0.030560  -0.155649
     4  C   -0.175997   0.128081   0.165336   5.364199   0.419703   0.042624
     5  C    0.032858  -0.116630   0.030560   0.419703   5.007092   0.412088
     6  C    0.450336   0.027033  -0.155649   0.042624   0.412088   5.014504
     7  H    0.426101  -0.062247   0.023729  -0.006770   0.010023  -0.041399
     8  H    0.000868   0.001717  -0.011930   0.382367  -0.007934   0.000564
     9  H    0.005762  -0.001507   0.010315  -0.040578   0.422254  -0.038813
    10  H   -0.046312   0.013416  -0.003646   0.008726  -0.044092   0.429507
    11  N    0.028400  -0.121711   0.407159  -0.100573   0.006560  -0.002759
    12  N   -0.060880   0.527861  -0.141974   0.042713  -0.008172   0.012576
    13  C   -0.029505  -0.070955  -0.205867   0.030692  -0.008430   0.005246
    14  C    0.000957   0.012167  -0.052053  -0.017628  -0.000257  -0.000566
    15  H   -0.000029  -0.001281  -0.003112  -0.000935   0.000112  -0.000082
    16  H    0.000197   0.002130  -0.006178  -0.003467   0.000016  -0.000141
    17  H   -0.000041  -0.001106   0.007168   0.001641   0.000005   0.000018
    18  S    0.001521   0.002988  -0.002383   0.001159  -0.000080  -0.000063
    19  O    0.001663   0.013673  -0.000214  -0.000604   0.000155  -0.000326
    20  O   -0.000363  -0.007200   0.018589   0.000847  -0.000021  -0.000000
    21  C    0.000211   0.003120   0.004390  -0.000194   0.000023  -0.000035
    22  C   -0.000076  -0.004006  -0.003552   0.000068  -0.000008   0.000008
    23  H    0.000025   0.000318  -0.000425  -0.000006   0.000000  -0.000000
    24  H    0.000004  -0.000003  -0.000156   0.000001  -0.000000   0.000000
    25  C   -0.002026   0.003895   0.019606   0.000631   0.000109   0.000015
    26  H    0.000004   0.000104  -0.000375   0.000010   0.000000   0.000000
    27  H    0.000002   0.000131   0.000098  -0.000002   0.000000  -0.000000
    28  C    0.000084  -0.002074  -0.009981  -0.001177  -0.000136   0.000140
    29  H    0.000808   0.003122   0.000243  -0.000293   0.000048  -0.000080
    30  H    0.000084   0.000491   0.001220  -0.000007   0.000021  -0.000013
    31  H   -0.000003  -0.000169   0.000061   0.000006  -0.000000   0.000001
    32  C   -0.000760  -0.009904   0.006350   0.003275   0.000025  -0.000003
    33  C   -0.000060   0.000582  -0.000059  -0.000123   0.000018  -0.000037
    34  H   -0.002405  -0.012431  -0.009426   0.003118  -0.000617   0.000981
    35  H    0.000931   0.000438  -0.000274  -0.000304   0.000050  -0.000041
    36  H   -0.000015  -0.000057   0.000067   0.000019  -0.000005   0.000002
    37  H    0.000015   0.000139   0.000022  -0.000057  -0.000001  -0.000001
[...]
     6  C(13)             -0.01180     -13.27046      -4.73523      -4.42655
     7  H(1)              -0.00229     -10.22566      -3.64877      -3.41091
     8  H(1)               0.00036       1.61650       0.57681       0.53921
     9  H(1)              -0.00341     -15.23009      -5.43448      -5.08021
    10  H(1)              -0.00009      -0.38275      -0.13657      -0.12767
    11  N(14)              0.02321       7.50012       2.67623       2.50177
    12  N(14)              0.06308      20.38069       7.27234       6.79827
    13  C(13)             -0.03417     -38.40959     -13.70550     -12.81206
    14  C(13)             -0.00526      -5.90997      -2.10882      -1.97135
    15  H(1)               0.00335      14.95295       5.33559       4.98777
    16  H(1)               0.00286      12.76774       4.55585       4.25886
    17  H(1)               0.00004       0.19553       0.06977       0.06522
    18  S(33)              0.28759      98.78078      35.24744      32.94972
    19  O(17)              0.00491      -2.97618      -1.06197      -0.99275
    20  O(17)              0.00869      -5.26658      -1.87925      -1.75674
    21  C(13)              0.01238      13.91436       4.96499       4.64133
    22  C(13)             -0.00236      -2.65030      -0.94569      -0.88405
    23  H(1)              -0.00039      -1.74261      -0.62181      -0.58127
    24  H(1)               0.00155       6.91154       2.46621       2.30544
    25  C(13)              0.02390      26.87035       9.58801       8.96298
    26  H(1)               0.00001       0.02500       0.00892       0.00834
    27  H(1)               0.00119       5.33364       1.90318       1.77911
    28  C(13)             -0.00209      -2.34978      -0.83846      -0.78380
    29  H(1)              -0.00057      -2.54457      -0.90796      -0.84878
    30  H(1)               0.00003       0.14280       0.05095       0.04763
    31  H(1)               0.00008       0.36546       0.13040       0.12190
    32  C(13)              0.00087       0.97625       0.34835       0.32564
    33  C(13)              0.00067       0.75101       0.26798       0.25051
    34  H(1)               0.00040       1.77856       0.63464       0.59326
    35  H(1)               0.00004       0.18324       0.06539       0.06112
    36  H(1)              -0.00001      -0.06065      -0.02164      -0.02023
    37  H(1)              -0.00000      -0.02046      -0.00730      -0.00682
    38  H(1)               0.00001       0.05854       0.02089       0.01953
 --------------------------------------------------------
       Center         ----  Spin Dipole Couplings  ----
                      3XX-RR        3YY-RR        3ZZ-RR
 --------------------------------------------------------
     1   Atom       -0.054595      0.116300     -0.061705
     2   Atom        0.020133     -0.026816      0.006683
     3   Atom       -0.067520      0.144450     -0.076930
     4   Atom        0.020928     -0.041740      0.020812
     5   Atom       -0.086104      0.187734     -0.101630
     6   Atom        0.002605     -0.008817      0.006212
     7   Atom       -0.007080     -0.003775      0.010855
     8   Atom        0.002702     -0.003469      0.000767
     9   Atom        0.006931     -0.002606     -0.004325
    10   Atom       -0.000059     -0.002750      0.002809
    11   Atom       -0.146774      0.308109     -0.161335
    12   Atom       -0.355692      0.747728     -0.392036
    13   Atom        0.012256     -0.046598      0.034343
    14   Atom       -0.002165     -0.002890      0.005055
    15   Atom       -0.002227     -0.001434      0.003661
    16   Atom       -0.001662     -0.002987      0.004649
    17   Atom       -0.000262     -0.001666      0.001928
    18   Atom        0.206476      0.124589     -0.331065
    19   Atom        0.041849      0.020185     -0.062034
    20   Atom        0.075657     -0.006491     -0.069166
    21   Atom        0.025992     -0.008825     -0.017166
    22   Atom        0.006503     -0.002249     -0.004254
    23   Atom        0.002115     -0.003604      0.001489
    24   Atom        0.004013     -0.001799     -0.002215
    25   Atom        0.019594      0.003270     -0.022863
    26   Atom        0.001399     -0.000571     -0.000827
    27   Atom        0.001294      0.000231     -0.001525
    28   Atom        0.000256      0.001040     -0.001296
    29   Atom        0.002359     -0.001700     -0.000659
    30   Atom       -0.000608      0.001982     -0.001374
    31   Atom       -0.000333      0.001617     -0.001284
    32   Atom       -0.001844      0.004186     -0.002342
    33   Atom       -0.001265      0.002424     -0.001160
    34   Atom       -0.002963      0.005826     -0.002863
    35   Atom       -0.002093      0.003872     -0.001779
    36   Atom       -0.000658      0.001502     -0.000844
    37   Atom       -0.000851      0.001497     -0.000646
    38   Atom       -0.000565      0.001257     -0.000692
 --------------------------------------------------------
                        XY            XZ            YZ
 --------------------------------------------------------
     1   Atom       -0.046570      0.010671     -0.022093
     2   Atom        0.017320     -0.006042      0.000486
     3   Atom       -0.055827      0.006360     -0.030852
     4   Atom        0.017003     -0.005963      0.006505
     5   Atom       -0.072984      0.003760     -0.035305
     6   Atom        0.002163     -0.000709      0.001917
     7   Atom       -0.000340      0.004293      0.002831
     8   Atom        0.001200     -0.002557     -0.000096
     9   Atom        0.000412     -0.015375     -0.004050
    10   Atom        0.001123      0.003104      0.001538
    11   Atom       -0.129070      0.008377     -0.036870
    12   Atom       -0.273049      0.035899     -0.121088
    13   Atom        0.038749     -0.000004      0.011381
    14   Atom       -0.000213      0.002346      0.001820
    15   Atom        0.000270      0.000428      0.003281
    16   Atom       -0.000463      0.001133     -0.000853
    17   Atom        0.000701      0.003355      0.002076
    18   Atom       -0.510576      0.070658     -0.061590
    19   Atom       -0.114995     -0.042597      0.041209
    20   Atom       -0.128299      0.070342     -0.048703
    21   Atom        0.021188     -0.010736     -0.005351
    22   Atom        0.000662      0.000209      0.000141
    23   Atom        0.000742     -0.002427     -0.000759
    24   Atom       -0.001029      0.001140     -0.001813
    25   Atom        0.033964     -0.004731     -0.003813
    26   Atom        0.001524      0.001625      0.000936
    27   Atom        0.001708     -0.000011     -0.000395
    28   Atom        0.002931      0.000393     -0.000249
    29   Atom        0.004996     -0.001912     -0.002762
    30   Atom        0.002162      0.000655      0.001739
    31   Atom        0.001424      0.000160      0.000280
    32   Atom        0.001661      0.000509      0.000687
    33   Atom       -0.000068     -0.000059      0.000541
    34   Atom       -0.000974     -0.000575      0.000473
    35   Atom        0.000633     -0.000350     -0.001401
    36   Atom       -0.000319      0.000003     -0.000053
    37   Atom        0.000061     -0.000012      0.000639
    38   Atom        0.000329     -0.000028      0.000027
 --------------------------------------------------------


 ---------------------------------------------------------------------------------
              Anisotropic Spin Dipole Couplings in Principal Axis System
 ---------------------------------------------------------------------------------

       Atom             a.u.   MegaHertz   Gauss  10(-4) cm-1        Axes

              Baa    -0.0705    -9.462    -3.376    -3.156  0.7629  0.1149 -0.6362
     1 C(13)  Bbb    -0.0607    -8.139    -2.904    -2.715  0.5970  0.2522  0.7615
              Bcc     0.1312    17.601     6.281     5.871 -0.2480  0.9608 -0.1238
 
              Baa    -0.0327    -4.382    -1.564    -1.462 -0.3174  0.9464 -0.0604
     2 C(13)  Bbb     0.0053     0.712     0.254     0.238  0.2304  0.1388  0.9632
              Bcc     0.0273     3.670     1.310     1.224  0.9199  0.2918 -0.2621
 
              Baa    -0.0824   -11.061    -3.947    -3.689  0.7003  0.2626  0.6638
     3 C(13)  Bbb    -0.0800   -10.731    -3.829    -3.580 -0.6732 -0.0662  0.7365
              Bcc     0.1624    21.792     7.776     7.269 -0.2374  0.9626 -0.1304
 
              Baa    -0.0470    -6.300    -2.248    -2.102 -0.2508  0.9613 -0.1144
     4 C(13)  Bbb     0.0190     2.544     0.908     0.849  0.5098  0.2316  0.8285
              Bcc     0.0280     3.756     1.340     1.253  0.8229  0.1495 -0.5481
 
              Baa    -0.1099   -14.746    -5.262    -4.919  0.6206  0.2407  0.7463
     5 C(13)  Bbb    -0.1000   -13.426    -4.791    -4.478  0.7467  0.1089 -0.6561
              Bcc     0.2099    28.172    10.052     9.397 -0.2392  0.9645 -0.1122
 
              Baa    -0.0095    -1.271    -0.454    -0.424 -0.1821  0.9750 -0.1274
     6 C(13)  Bbb     0.0030     0.398     0.142     0.133  0.9759  0.1951  0.0978
              Bcc     0.0065     0.873     0.311     0.291 -0.1202  0.1065  0.9870
 
              Baa    -0.0083    -4.416    -1.576    -1.473  0.9430  0.2252 -0.2449
     7 H(1)   Bbb    -0.0040    -2.136    -0.762    -0.713 -0.2575  0.9602 -0.1085
              Bcc     0.0123     6.552     2.338     2.186  0.2107  0.1654  0.9634
 
              Baa    -0.0037    -1.992    -0.711    -0.665 -0.2228  0.9691 -0.1058
     8 H(1)   Bbb    -0.0009    -0.464    -0.166    -0.155  0.5215  0.2102  0.8270
              Bcc     0.0046     2.456     0.876     0.819  0.8237  0.1291 -0.5522
 
              Baa    -0.0158    -8.432    -3.009    -2.812  0.5422  0.2310  0.8079
     9 H(1)   Bbb    -0.0022    -1.185    -0.423    -0.395 -0.2381  0.9643 -0.1159
              Bcc     0.0180     9.616     3.431     3.208  0.8058  0.1295 -0.5779
 
              Baa    -0.0032    -1.715    -0.612    -0.572 -0.2059  0.9683 -0.1412
    10 H(1)   Bbb    -0.0020    -1.085    -0.387    -0.362  0.8244  0.0939 -0.5582
              Bcc     0.0052     2.799     0.999     0.934  0.5273  0.2313  0.8176
 
              Baa    -0.1809    -6.979    -2.490    -2.328  0.9625  0.2599  0.0774
    11 N(14)  Bbb    -0.1641    -6.327    -2.258    -2.111 -0.0940  0.0519  0.9942
              Bcc     0.3450    13.306     4.748     4.438 -0.2543  0.9642 -0.0744
 
              Baa    -0.4226   -16.300    -5.816    -5.437  0.9072  0.1719 -0.3840
    12 N(14)  Bbb    -0.4020   -15.505    -5.533    -5.172  0.3542  0.1807  0.9176
              Bcc     0.8247    31.805    11.349    10.609 -0.2271  0.9684 -0.1031
 
              Baa    -0.0669    -8.972    -3.201    -2.993 -0.4376  0.8935 -0.1005
    13 C(13)  Bbb     0.0280     3.762     1.343     1.255  0.7658  0.3118 -0.5624
              Bcc     0.0388     5.209     1.859     1.738  0.4711  0.3231  0.8208
 
              Baa    -0.0038    -0.505    -0.180    -0.168  0.5533  0.7743 -0.3070
    14 C(13)  Bbb    -0.0023    -0.309    -0.110    -0.103  0.7898 -0.6048 -0.1021
              Bcc     0.0061     0.814     0.291     0.272  0.2648  0.1860  0.9462
 
              Baa    -0.0030    -1.624    -0.580    -0.542 -0.0692  0.8978 -0.4349
    15 H(1)   Bbb    -0.0023    -1.204    -0.430    -0.402  0.9954  0.0330 -0.0902
              Bcc     0.0053     2.828     1.009     0.943  0.0666  0.4391  0.8959
 
              Baa    -0.0032    -1.689    -0.603    -0.563  0.2450  0.9670  0.0701
    16 H(1)   Bbb    -0.0018    -0.954    -0.340    -0.318  0.9535 -0.2272 -0.1980
              Bcc     0.0050     2.643     0.943     0.882  0.1756 -0.1153  0.9777
 
              Baa    -0.0032    -1.687    -0.602    -0.563 -0.5566 -0.5736  0.6010
    17 H(1)   Bbb    -0.0019    -0.993    -0.354    -0.331 -0.6319  0.7619  0.1419
              Bcc     0.0050     2.680     0.956     0.894  0.5393  0.3008  0.7865
 
              Baa    -0.3476   -14.250    -5.085    -4.753  0.6641  0.6767 -0.3178
    18 S(33)  Bbb    -0.3388   -13.890    -4.956    -4.633  0.1525  0.2935  0.9437
              Bcc     0.6864    28.141    10.041     9.387  0.7319 -0.6752  0.0917
 
              Baa    -0.0849     6.144     2.192     2.049  0.6114  0.7580 -0.2272
    19 O(17)  Bbb    -0.0773     5.591     1.995     1.865  0.3418  0.0059  0.9398
              Bcc     0.1622   -11.735    -4.187    -3.914  0.7137 -0.6522 -0.2555
 
              Baa    -0.1011     7.313     2.610     2.439  0.6374  0.6590 -0.3993
    20 O(17)  Bbb    -0.0957     6.927     2.472     2.311  0.0216  0.5027  0.8642
              Bcc     0.1968   -14.241    -5.081    -4.750  0.7702 -0.5595  0.3062
 
              Baa    -0.0198    -2.658    -0.948    -0.887  0.0792  0.3089  0.9478
    21 C(13)  Bbb    -0.0188    -2.520    -0.899    -0.840 -0.4617  0.8540 -0.2398
              Bcc     0.0386     5.178     1.848     1.727  0.8835  0.4186 -0.2103
 
              Baa    -0.0043    -0.573    -0.204    -0.191 -0.0154 -0.0648  0.9978
    22 C(13)  Bbb    -0.0023    -0.307    -0.110    -0.103 -0.0764  0.9951  0.0634
              Bcc     0.0066     0.880     0.314     0.293  0.9970  0.0753  0.0203
 
              Baa    -0.0037    -1.999    -0.713    -0.667 -0.0817  0.9910  0.1058
    23 H(1)   Bbb    -0.0006    -0.343    -0.122    -0.114  0.6642 -0.0250  0.7472
              Bcc     0.0044     2.342     0.836     0.781  0.7431  0.1313 -0.6562
 
              Baa    -0.0038    -2.046    -0.730    -0.683 -0.0231  0.6582  0.7525
    24 H(1)   Bbb    -0.0007    -0.362    -0.129    -0.121  0.3089  0.7205 -0.6208
              Bcc     0.0045     2.408     0.859     0.803  0.9508 -0.2182  0.2200
 
              Baa    -0.0235    -3.158    -1.127    -1.053 -0.5294  0.7320  0.4289
    25 C(13)  Bbb    -0.0234    -3.135    -1.119    -1.046  0.3280 -0.2896  0.8992
              Bcc     0.0469     6.292     2.245     2.099  0.7824  0.6167 -0.0868
 
              Baa    -0.0017    -0.919    -0.328    -0.307 -0.3127 -0.3149  0.8962
    26 H(1)   Bbb    -0.0014    -0.745    -0.266    -0.248 -0.5255  0.8432  0.1129
              Bcc     0.0031     1.664     0.594     0.555  0.7912  0.4357  0.4291
 
              Baa    -0.0017    -0.899    -0.321    -0.300 -0.2113  0.3745  0.9028
    27 H(1)   Bbb    -0.0009    -0.470    -0.168    -0.157 -0.5604  0.7104 -0.4258
              Bcc     0.0026     1.369     0.489     0.457  0.8008  0.5959 -0.0597
 
              Baa    -0.0025    -0.334    -0.119    -0.111  0.7048 -0.6112 -0.3602
    28 C(13)  Bbb    -0.0011    -0.150    -0.054    -0.050  0.2618 -0.2478  0.9328
              Bcc     0.0036     0.484     0.173     0.161  0.6593  0.7517  0.0147
 
              Baa    -0.0054    -2.905    -1.037    -0.969 -0.4619  0.8355  0.2976
    29 H(1)   Bbb    -0.0016    -0.839    -0.299    -0.280  0.4825 -0.0448  0.8748
              Bcc     0.0070     3.744     1.336     1.249  0.7442  0.5477 -0.3824
 
              Baa    -0.0022    -1.181    -0.421    -0.394  0.3781 -0.5141  0.7699
    30 H(1)   Bbb    -0.0016    -0.875    -0.312    -0.292  0.8088 -0.2212 -0.5449
              Bcc     0.0039     2.056     0.734     0.686  0.4504  0.8288  0.3321
 
              Baa    -0.0013    -0.700    -0.250    -0.234 -0.0822 -0.0551  0.9951
    31 H(1)   Bbb    -0.0011    -0.578    -0.206    -0.193  0.8815 -0.4698  0.0468
              Bcc     0.0024     1.278     0.456     0.426  0.4649  0.8811  0.0872
 
              Baa    -0.0027    -0.360    -0.128    -0.120 -0.6178  0.0711  0.7831
    32 C(13)  Bbb    -0.0020    -0.271    -0.097    -0.090  0.7447 -0.2669  0.6117
              Bcc     0.0047     0.631     0.225     0.210  0.2525  0.9611  0.1119
 
              Baa    -0.0013    -0.175    -0.062    -0.058  0.7947 -0.0731  0.6026
    33 C(13)  Bbb    -0.0012    -0.161    -0.058    -0.054 -0.6067 -0.1283  0.7845
              Bcc     0.0025     0.336     0.120     0.112 -0.0200  0.9890  0.1463
 
              Baa    -0.0035    -1.872    -0.668    -0.624  0.7627  0.0468  0.6451
    34 H(1)   Bbb    -0.0025    -1.311    -0.468    -0.437 -0.6370 -0.1184  0.7617
              Bcc     0.0060     3.183     1.136     1.062 -0.1121  0.9919  0.0605
 
              Baa    -0.0023    -1.247    -0.445    -0.416  0.7561  0.0697  0.6507
    35 H(1)   Bbb    -0.0019    -1.035    -0.369    -0.345 -0.6453  0.2446  0.7237
              Bcc     0.0043     2.282     0.814     0.761  0.1087  0.9671 -0.2300
 
              Baa    -0.0008    -0.451    -0.161    -0.151  0.0312  0.0266  0.9992
    36 H(1)   Bbb    -0.0007    -0.375    -0.134    -0.125  0.9892  0.1423 -0.0347
              Bcc     0.0015     0.827     0.295     0.276 -0.1431  0.9895 -0.0219
 
              Baa    -0.0009    -0.464    -0.165    -0.155  0.8547 -0.1558  0.4953
    37 H(1)   Bbb    -0.0008    -0.430    -0.153    -0.143 -0.5187 -0.2161  0.8272
              Bcc     0.0017     0.893     0.319     0.298  0.0219  0.9639  0.2655
 
              Baa    -0.0007    -0.376    -0.134    -0.125  0.3524 -0.0718  0.9331
    38 H(1)   Bbb    -0.0006    -0.325    -0.116    -0.109  0.9199 -0.1569 -0.3595
              Bcc     0.0013     0.701     0.250     0.234  0.1722  0.9850  0.0107
 

 ---------------------------------------------------------------------------------

 Unable to Open any file for archive entry.
 1\1\GINC-CLUSTER\SP\UM062X\def2TZVP\C14H19N2O2S1(2)\KJIANG\21-Nov-2025
 \0\\# scrf=(solvent=n,n-dimethylformamide) def2tzvp m062x geom=allchec
 k\\Title Card Required\\0,2\C,0,-2.7384333294,-0.9049505037,-1.5261330
 053\C,0,-1.5518082373,-0.5251969615,-0.8547351114\C,0,-1.5781758086,-0
 .3427616107,0.5675526466\C,0,-2.7327988708,-0.5400226765,1.3223244678\
 C,0,-3.876382855,-0.9177049172,0.6290874922\C,0,-3.8780592155,-1.09543
 56732,-0.7749636553\H,0,-2.7220583098,-1.0459112683,-2.6009574614\H,0,
 -2.7394907626,-0.4083552337,2.3991947436\H,0,-4.7964457273,-1.08439623
 46,1.1800071643\H,0,-4.7999713713,-1.3946665488,-1.2625853713\N,0,-0.3
 278184847,0.0559456917,0.9259643608\N,0,-0.3419685315,-0.2688024476,-1
 .3585122112\C,0,0.495775557,-0.0099113857,-0.2557650711\C,0,0.08001821
 09,0.2711152684,2.2989616469\H,0,-0.5008539497,1.095752317,2.728095277
 1\H,0,-0.0644218265,-0.6383955793,2.8889010957\H,0,1.1388869456,0.5208
 809497,2.3321560925\S,0,1.6656212102,-1.6029114376,-0.0332784675\O,0,1
 .3416774469,-2.6914013904,-0.9455566781\O,0,1.7596609589,-1.8464070906
 ,1.4118570444\C,0,3.1750292137,-0.7360896289,-0.5157980303\C,0,2.93144
 16565,0.6830135978,-0.0145441848\H,0,3.2482145329,-0.7877972465,-1.605
 141726\H,0,4.0146421564,-1.2532452397,-0.047535286\C,0,1.5340121275,1.
 1077597467,-0.5042526943\H,0,2.9983210096,0.7049502333,1.0792729244\H,
 0,3.6865806041,1.3711492794,-0.4050067946\C,0,1.0892356813,2.477521840
 8,0.007185477\H,0,1.5856661045,1.1554278637,-1.5995261597\H,0,1.008888
 742,2.4668474926,1.1020543646\H,0,1.8847922334,3.1971888338,-0.2312701
 649\C,0,-0.2266389987,2.9640890233,-0.6007397679\C,0,-0.5809933007,4.3
 736173799,-0.1342189752\H,0,-1.0348591843,2.272945411,-0.335220876\H,0
 ,-0.1487868953,2.9375033369,-1.6946017883\H,0,-1.5236296336,4.71276020
 85,-0.5719494543\H,0,-0.6856476112,4.4100303961,0.9555928026\H,0,0.198
 1665125,5.0895312038,-0.4170126655\\Version=ES64L-G16RevC.02\State=2-A
 \HF=-1202.9983326\S2=0.770666\S2-1=0.\S2A=0.750315\RMSD=9.568e-09\Dipo
 le=0.3496807,2.5445392,0.975977\Quadrupole=14.7401487,-13.2802864,-1.4
 598623,8.2488604,-4.374694,0.2088713\PG=C01 [X(C14H19N2O2S1)]\\@
 The archive entry for this job was punched.


 If your ship doesn't come in, swim out to it!
                          -- Jonathan Winters
 Job cpu time:       0 days  3 hours 25 minutes 26.6 seconds.
 Elapsed time:       0 days  0 hours  2 minutes 28.0 seconds.
 File lengths (MBytes):  RWF=    583 Int=      0 D2E=      0 Chk=     45 Scr=      1
 Normal termination of Gaussian 16 at Fri Nov 21 18:19:09 2025.
