 Entering Gaussian System, Link 0=g16
 Initial command:
 /public/software/g16/l1.exe "/tmp/Gau-8281.inp" -scrdir="/tmp/"
 Entering Link 1 = /public/software/g16/l1.exe PID=      8282.
  
 Copyright (c) 1988-2021, Gaussian, Inc.  All Rights Reserved.
  
 This is part of the Gaussian(R) 16 program.  It is based on
 the Gaussian(R) 09 system (copyright 2009, Gaussian, Inc.),
 the Gaussian(R) 03 system (copyright 2003, Gaussian, Inc.),
 the Gaussian(R) 98 system (copyright 1998, Gaussian, Inc.),
 the Gaussian(R) 94 system (copyright 1995, Gaussian, Inc.),
 the Gaussian 92(TM) system (copyright 1992, Gaussian, Inc.),
 the Gaussian 90(TM) system (copyright 1990, Gaussian, Inc.),
 the Gaussian 88(TM) system (copyright 1988, Gaussian, Inc.),
 the Gaussian 86(TM) system (copyright 1986, Carnegie Mellon
 University), and the Gaussian 82(TM) system (copyright 1983,
 Carnegie Mellon University). Gaussian is a federally registered
 trademark of Gaussian, Inc.
  
 This software contains proprietary and confidential information,
 including trade secrets, belonging to Gaussian, Inc.
  
 This software is provided under written license and may be
 used, copied, transmitted, or stored only in accord with that
 written license.
  
 The following legend is applicable only to US Government
 contracts under FAR:
  
                    RESTRICTED RIGHTS LEGEND
  
 Use, reproduction and disclosure by the US Government is
 subject to restrictions as set forth in subparagraphs (a)
 and (c) of the Commercial Computer Software - Restricted
 Rights clause in FAR 52.227-19.
  
 Gaussian, Inc.
 340 Quinnipiac St., Bldg. 40, Wallingford CT 06492
  
  
 ---------------------------------------------------------------
 Warning -- This program may not be used in any manner that
 competes with the business of Gaussian, Inc. or will provide
 assistance to any competitor of Gaussian, Inc.  The licensee
 of this program is prohibited from giving any competitor of
 Gaussian, Inc. access to this program.  By using this program,
 the user acknowledges that Gaussian, Inc. is engaged in the
 business of creating and licensing software in the field of
 computational chemistry and represents and warrants to the
 licensee that it is not a competitor of Gaussian, Inc. and that
 it will not use this program in any manner prohibited above.
 ---------------------------------------------------------------
  

 Cite this work as:
 Gaussian 16, Revision C.02,
 M. J. Frisch, G. W. Trucks, H. B. Schlegel, G. E. Scuseria, 
 M. A. Robb, J. R. Cheeseman, G. Scalmani, V. Barone, 
 G. A. Petersson, H. Nakatsuji, X. Li, M. Caricato, A. V. Marenich, 
 J. Bloino, B. G. Janesko, R. Gomperts, B. Mennucci, H. P. Hratchian, 
 J. V. Ortiz, A. F. Izmaylov, J. L. Sonnenberg, D. Williams-Young, 
 F. Ding, F. Lipparini, F. Egidi, J. Goings, B. Peng, A. Petrone, 
 T. Henderson, D. Ranasinghe, V. G. Zakrzewski, J. Gao, N. Rega, 
 G. Zheng, W. Liang, M. Hada, M. Ehara, K. Toyota, R. Fukuda, 
 J. Hasegawa, M. Ishida, T. Nakajima, Y. Honda, O. Kitao, H. Nakai, 
 T. Vreven, K. Throssell, J. A. Montgomery, Jr., J. E. Peralta, 
 F. Ogliaro, M. J. Bearpark, J. J. Heyd, E. N. Brothers, K. N. Kudin, 
 V. N. Staroverov, T. A. Keith, R. Kobayashi, J. Normand, 
 K. Raghavachari, A. P. Rendell, J. C. Burant, S. S. Iyengar, 
 J. Tomasi, M. Cossi, J. M. Millam, M. Klene, C. Adamo, R. Cammi, 
 J. W. Ochterski, R. L. Martin, K. Morokuma, O. Farkas, 
 J. B. Foresman, and D. J. Fox, Gaussian, Inc., Wallingford CT, 2019.
 
 ******************************************
 Gaussian 16:  ES64L-G16RevC.02  7-Dec-2021
                21-Nov-2025 
 ******************************************
 %nprocshared=96
 Will use up to   96 processors via shared memory.
 %mem=10GB
 %chk=IM3.chk
 -------------------------------------------------------------------
 # scrf=(solvent=n,n-dimethylformamide) def2tzvp m062x geom=allcheck
 -------------------------------------------------------------------
 1/29=7,38=1,172=1/1;
 2/12=2,40=1/2;
 3/5=44,7=101,11=2,14=-4,25=1,30=1,70=2201,72=148,74=-55/1,2,3;
 4//1;
 5/5=2,38=5,53=148/2;
 6/7=2,8=2,9=2,10=2,28=1/1;
 99/5=1,9=1/99;
 Structure from the checkpoint file:  "IM3.chk"
 -------------------
 Title Card Required
 -------------------
 Charge =  0 Multiplicity = 2
 Redundant internal coordinates found in file.  (old form).
 C,0,-2.8606147707,-2.0827603405,-1.3984912578
 C,0,-2.0380496149,-1.1160531595,-0.8113388057
 C,0,-2.2498076353,-0.7306121565,0.5251174591
 C,0,-3.2719591233,-1.2696561346,1.3077725794
 C,0,-4.0766818039,-2.2261241345,0.7063239259
 C,0,-3.8740283816,-2.6285799632,-0.6273539505
 H,0,-2.6976718828,-2.3831977463,-2.4280510483
 H,0,-3.4420673714,-0.958915429,2.3338883529
 H,0,-4.8843601749,-2.6725406492,1.2775168019
 H,0,-4.52905401,-3.3800387417,-1.0560772924
 N,0,-1.2720274867,0.2124728525,0.7898952627
 N,0,-0.9728705493,-0.4130187961,-1.3451681875
 C,0,-0.5547154317,0.3668112639,-0.3806502471
 C,0,-1.1421859555,0.9286706865,2.0422921905
 H,0,-1.6558314589,1.8957236535,2.0090162287
 H,0,-1.5816286312,0.3204384327,2.8349464282
 H,0,-0.091299058,1.0903719501,2.2849169282
 S,0,3.7715067104,-1.3067918668,0.3293159615
 O,0,4.0866534313,-2.5607745277,-0.3760655566
 O,0,4.7396316892,-0.1960333792,0.3977058821
 C,0,2.2695229093,-0.6323545768,-0.475822842
 C,0,1.8877030217,0.7119723904,0.1226868475
 H,0,1.4989465692,-1.3990472426,-0.3663149481
 H,0,2.5349499569,-0.5595440684,-1.5357390115
 C,0,0.6252867024,1.2854754023,-0.5470179415
 H,0,1.7315655247,0.6073827553,1.2040058681
 H,0,2.7182829677,1.4124273672,-0.0095290608
 C,0,0.3698462583,2.7396963779,-0.1198247712
 H,0,0.7947750588,1.2846862918,-1.6306142395
 H,0,0.3799649884,2.8320209852,0.9737305271
 H,0,1.2151222631,3.3429284815,-0.4751912045
 C,0,-0.9323260727,3.3167361948,-0.6732558625
 C,0,-1.1174937105,4.783330502,-0.2935109865
 H,0,-1.7830991336,2.7282099943,-0.3055895809
 H,0,-0.9395123246,3.2048547645,-1.7645391473
 H,0,-2.0538587215,5.1833192902,-0.6913339568
 H,0,-1.1356441025,4.9061433962,0.7951144373
 H,0,-0.2975366463,5.39598188,-0.6821487821
 Recover connectivity data from disk.
                           ----------------------------
                           !    Current Parameters    !
                           ! (Angstroms and Degrees)  !
 --------------------------                            --------------------------
 ! Name  Definition              Value                                          !
 --------------------------------------------------------------------------------
 ! R1    R(1,2)                  1.3985                                         !
 ! R2    R(1,6)                  1.3855                                         !
 ! R3    R(1,7)                  1.0848                                         !
 ! R4    R(2,3)                  1.407                                          !
 ! R5    R(2,12)                 1.3834                                         !
 ! R6    R(3,4)                  1.3957                                         !
 ! R7    R(3,11)                 1.384                                          !
 ! R8    R(4,5)                  1.3871                                         !
 ! R9    R(4,8)                  1.0855                                         !
 ! R10   R(5,6)                  1.4077                                         !
 ! R11   R(5,9)                  1.0853                                         !
 ! R12   R(6,10)                 1.0852                                         !
 ! R13   R(11,13)                1.3815                                         !
 ! R14   R(11,14)                1.4485                                         !
 ! R15   R(12,13)                1.3089                                         !
 ! R16   R(13,25)                1.5047                                         !
 ! R17   R(14,15)                1.0955                                         !
 ! R18   R(14,16)                1.0915                                         !
 ! R19   R(14,17)                1.0906                                         !
 ! R20   R(18,19)                1.4729                                         !
 ! R21   R(18,20)                1.475                                          !
 ! R22   R(18,21)                1.8328                                         !
 ! R23   R(21,22)                1.5203                                         !
 ! R24   R(21,23)                1.0925                                         !
 ! R25   R(21,24)                1.0951                                         !
 ! R26   R(22,25)                1.5398                                         !
 ! R27   R(22,26)                1.0975                                         !
 ! R28   R(22,27)                1.0945                                         !
 ! R29   R(25,28)                1.537                                          !
 ! R30   R(25,29)                1.0968                                         !
 ! R31   R(28,30)                1.0975                                         !
 ! R32   R(28,31)                1.0976                                         !
 ! R33   R(28,32)                1.528                                          !
 ! R34   R(32,33)                1.5262                                         !
 ! R35   R(32,34)                1.0979                                         !
 ! R36   R(32,35)                1.097                                          !
 ! R37   R(33,36)                1.0932                                         !
 ! R38   R(33,37)                1.0957                                         !
 ! R39   R(33,38)                1.0949                                         !
 ! A1    A(2,1,6)              117.9599                                         !
 ! A2    A(2,1,7)              120.1023                                         !
 ! A3    A(6,1,7)              121.9377                                         !
 ! A4    A(1,2,3)              119.9763                                         !
 ! A5    A(1,2,12)             129.9512                                         !
 ! A6    A(3,2,12)             110.0725                                         !
 ! A7    A(2,3,4)              122.4859                                         !
 ! A8    A(2,3,11)             105.1926                                         !
 ! A9    A(4,3,11)             132.3214                                         !
 ! A10   A(3,4,5)              116.6179                                         !
 ! A11   A(3,4,8)              122.2949                                         !
 ! A12   A(5,4,8)              121.0859                                         !
 ! A13   A(4,5,6)              121.6273                                         !
 ! A14   A(4,5,9)              119.1537                                         !
 ! A15   A(6,5,9)              119.2187                                         !
 ! A16   A(1,6,5)              121.3302                                         !
 ! A17   A(1,6,10)             119.6326                                         !
 ! A18   A(5,6,10)             119.037                                          !
 ! A19   A(3,11,13)            106.3108                                         !
 ! A20   A(3,11,14)            124.4458                                         !
 ! A21   A(13,11,14)           129.1083                                         !
 ! A22   A(2,12,13)            105.3312                                         !
 ! A23   A(11,13,12)           113.0743                                         !
 ! A24   A(11,13,25)           124.6865                                         !
 ! A25   A(12,13,25)           122.1953                                         !
 ! A26   A(11,14,15)           111.6023                                         !
 ! A27   A(11,14,16)           108.4374                                         !
 ! A28   A(11,14,17)           110.6114                                         !
 ! A29   A(15,14,16)           108.9776                                         !
 ! A30   A(15,14,17)           109.1275                                         !
 ! A31   A(16,14,17)           107.9998                                         !
 ! A32   A(19,18,20)           121.5267                                         !
 ! A33   A(19,18,21)           106.1564                                         !
 ! A34   A(20,18,21)           106.3282                                         !
 ! A35   A(18,21,22)           110.9943                                         !
 ! A36   A(18,21,23)           106.0065                                         !
 ! A37   A(18,21,24)           104.5384                                         !
 ! A38   A(22,21,23)           113.8251                                         !
 ! A39   A(22,21,24)           112.5277                                         !
 ! A40   A(23,21,24)           108.3388                                         !
 ! A41   A(21,22,25)           111.3475                                         !
 ! A42   A(21,22,26)           109.8364                                         !
 ! A43   A(21,22,27)           109.1326                                         !
 ! A44   A(25,22,26)           110.3256                                         !
 ! A45   A(25,22,27)           109.3444                                         !
 ! A46   A(26,22,27)           106.7356                                         !
 ! A47   A(13,25,22)           111.5589                                         !
 ! A48   A(13,25,28)           114.6191                                         !
 ! A49   A(13,25,29)           103.2965                                         !
 ! A50   A(22,25,28)           111.5766                                         !
 ! A51   A(22,25,29)           107.6219                                         !
 ! A52   A(28,25,29)           107.515                                          !
 ! A53   A(25,28,30)           110.793                                          !
 ! A54   A(25,28,31)           107.5787                                         !
 ! A55   A(25,28,32)           113.4686                                         !
 ! A56   A(30,28,31)           105.6213                                         !
 ! A57   A(30,28,32)           109.6926                                         !
 ! A58   A(31,28,32)           109.3585                                         !
 ! A59   A(28,32,33)           112.0955                                         !
 ! A60   A(28,32,34)           109.673                                          !
 ! A61   A(28,32,35)           109.1084                                         !
 ! A62   A(33,32,34)           109.7409                                         !
 ! A63   A(33,32,35)           110.1644                                         !
 ! A64   A(34,32,35)           105.8658                                         !
 ! A65   A(32,33,36)           111.4058                                         !
 ! A66   A(32,33,37)           110.9116                                         !
 ! A67   A(32,33,38)           111.0096                                         !
 ! A68   A(36,33,37)           107.8406                                         !
 ! A69   A(36,33,38)           107.9126                                         !
 ! A70   A(37,33,38)           107.5997                                         !
 ! D1    D(6,1,2,3)              0.2665                                         !
 ! D2    D(6,1,2,12)          -179.6164                                         !
 ! D3    D(7,1,2,3)           -179.8535                                         !
 ! D4    D(7,1,2,12)             0.2637                                         !
 ! D5    D(2,1,6,5)              0.0831                                         !
 ! D6    D(2,1,6,10)           179.9309                                         !
 ! D7    D(7,1,6,5)           -179.7946                                         !
 ! D8    D(7,1,6,10)             0.0532                                         !
 ! D9    D(1,2,3,4)             -0.608                                          !
 ! D10   D(1,2,3,11)           179.3429                                         !
 ! D11   D(12,2,3,4)           179.2964                                         !
 ! D12   D(12,2,3,11)           -0.7527                                         !
 ! D13   D(1,2,12,13)          179.8058                                         !
 ! D14   D(3,2,12,13)           -0.0862                                         !
 ! D15   D(2,3,4,5)              0.5572                                         !
 ! D16   D(2,3,4,8)           -179.0403                                         !
 ! D17   D(11,3,4,5)          -179.3787                                         !
 ! D18   D(11,3,4,8)             1.0238                                         !
 ! D19   D(2,3,11,13)            1.2502                                         !
 ! D20   D(2,3,11,14)          177.3563                                         !
 ! D21   D(4,3,11,13)         -178.8058                                         !
 ! D22   D(4,3,11,14)           -2.6997                                         !
 ! D23   D(3,4,5,6)             -0.1948                                         !
 ! D24   D(3,4,5,9)           -179.9928                                         !
 ! D25   D(8,4,5,6)            179.4078                                         !
 ! D26   D(8,4,5,9)             -0.3901                                         !
 ! D27   D(4,5,6,1)             -0.1197                                         !
 ! D28   D(4,5,6,10)          -179.9684                                         !
 ! D29   D(9,5,6,1)            179.6781                                         !
 ! D30   D(9,5,6,10)            -0.1706                                         !
 ! D31   D(3,11,13,12)          -1.4269                                         !
 ! D32   D(3,11,13,25)        -179.0539                                         !
 ! D33   D(14,11,13,12)       -177.2881                                         !
 ! D34   D(14,11,13,25)          5.0849                                         !
 ! D35   D(3,11,14,15)         -94.2042                                         !
 ! D36   D(3,11,14,16)          25.8422                                         !
 ! D37   D(3,11,14,17)         144.097                                          !
 ! D38   D(13,11,14,15)         80.9775                                         !
 ! D39   D(13,11,14,16)       -158.9761                                         !
 ! D40   D(13,11,14,17)        -40.7213                                         !
 ! D41   D(2,12,13,11)           0.9348                                         !
 ! D42   D(2,12,13,25)         178.629                                          !
 ! D43   D(11,13,25,22)         75.3397                                         !
 ! D44   D(11,13,25,28)        -52.6845                                         !
 ! D45   D(11,13,25,29)       -169.3295                                         !
 ! D46   D(12,13,25,22)       -102.0803                                         !
 ! D47   D(12,13,25,28)        129.8954                                         !
 ! D48   D(12,13,25,29)         13.2505                                         !
 ! D49   D(19,18,21,22)       -176.913                                          !
 ! D50   D(19,18,21,23)         59.017                                          !
 ! D51   D(19,18,21,24)        -55.348                                          !
 ! D52   D(20,18,21,22)        -46.2094                                         !
 ! D53   D(20,18,21,23)       -170.2794                                         !
 ! D54   D(20,18,21,24)         75.3556                                         !
 ! D55   D(18,21,22,25)       -179.9332                                         !
 ! D56   D(18,21,22,26)        -57.4225                                         !
 ! D57   D(18,21,22,27)         59.2676                                         !
 ! D58   D(23,21,22,25)        -60.44                                           !
 ! D59   D(23,21,22,26)         62.0708                                         !
 ! D60   D(23,21,22,27)        178.7609                                         !
 ! D61   D(24,21,22,25)         63.3063                                         !
 ! D62   D(24,21,22,26)       -174.183                                          !
 ! D63   D(24,21,22,27)        -57.4929                                         !
 ! D64   D(21,22,25,13)         59.9968                                         !
 ! D65   D(21,22,25,28)       -170.3666                                         !
 ! D66   D(21,22,25,29)        -52.6447                                         !
 ! D67   D(26,22,25,13)        -62.2318                                         !
 ! D68   D(26,22,25,28)         67.4048                                         !
 ! D69   D(26,22,25,29)       -174.8733                                         !
 ! D70   D(27,22,25,13)       -179.3284                                         !
 ! D71   D(27,22,25,28)        -49.6918                                         !
 ! D72   D(27,22,25,29)         68.0301                                         !
 ! D73   D(13,25,28,30)         76.4264                                         !
 ! D74   D(13,25,28,31)       -168.5844                                         !
 ! D75   D(13,25,28,32)        -47.4786                                         !
 ! D76   D(22,25,28,30)        -51.5889                                         !
 ! D77   D(22,25,28,31)         63.4004                                         !
 ! D78   D(22,25,28,32)       -175.4939                                         !
 ! D79   D(29,25,28,30)       -169.3751                                         !
 ! D80   D(29,25,28,31)        -54.3858                                         !
 ! D81   D(29,25,28,32)         66.72                                           !
 ! D82   D(25,28,32,33)       -176.8885                                         !
 ! D83   D(25,28,32,34)         60.952                                          !
 ! D84   D(25,28,32,35)        -54.5868                                         !
 ! D85   D(30,28,32,33)         58.6095                                         !
 ! D86   D(30,28,32,34)        -63.55                                           !
 ! D87   D(30,28,32,35)       -179.0889                                         !
 ! D88   D(31,28,32,33)        -56.7878                                         !
 ! D89   D(31,28,32,34)       -178.9473                                         !
 ! D90   D(31,28,32,35)         65.5139                                         !
 ! D91   D(28,32,33,36)       -179.761                                          !
 ! D92   D(28,32,33,37)        -59.6247                                         !
 ! D93   D(28,32,33,38)         59.9451                                         !
 ! D94   D(34,32,33,36)        -57.6403                                         !
 ! D95   D(34,32,33,37)         62.496                                          !
 ! D96   D(34,32,33,38)       -177.9342                                         !
 ! D97   D(35,32,33,36)         58.5403                                         !
 ! D98   D(35,32,33,37)        178.6766                                         !
 ! D99   D(35,32,33,38)        -61.7536                                         !
 --------------------------------------------------------------------------------
                          Input orientation:                          
 ---------------------------------------------------------------------
 Center     Atomic      Atomic             Coordinates (Angstroms)
 Number     Number       Type             X           Y           Z
 ---------------------------------------------------------------------
      1          6           0       -2.860615   -2.082760   -1.398491
      2          6           0       -2.038050   -1.116053   -0.811339
      3          6           0       -2.249808   -0.730612    0.525117
      4          6           0       -3.271959   -1.269656    1.307773
      5          6           0       -4.076682   -2.226124    0.706324
      6          6           0       -3.874028   -2.628580   -0.627354
      7          1           0       -2.697672   -2.383198   -2.428051
      8          1           0       -3.442067   -0.958915    2.333888
      9          1           0       -4.884360   -2.672541    1.277517
     10          1           0       -4.529054   -3.380039   -1.056077
     11          7           0       -1.272027    0.212473    0.789895
     12          7           0       -0.972871   -0.413019   -1.345168
     13          6           0       -0.554715    0.366811   -0.380650
     14          6           0       -1.142186    0.928671    2.042292
     15          1           0       -1.655831    1.895724    2.009016
     16          1           0       -1.581629    0.320438    2.834946
     17          1           0       -0.091299    1.090372    2.284917
     18         16           0        3.771507   -1.306792    0.329316
     19          8           0        4.086653   -2.560775   -0.376066
     20          8           0        4.739632   -0.196033    0.397706
     21          6           0        2.269523   -0.632355   -0.475823
     22          6           0        1.887703    0.711972    0.122687
     23          1           0        1.498947   -1.399047   -0.366315
     24          1           0        2.534950   -0.559544   -1.535739
     25          6           0        0.625287    1.285475   -0.547018
     26          1           0        1.731566    0.607383    1.204006
     27          1           0        2.718283    1.412427   -0.009529
     28          6           0        0.369846    2.739696   -0.119825
     29          1           0        0.794775    1.284686   -1.630614
     30          1           0        0.379965    2.832021    0.973731
     31          1           0        1.215122    3.342928   -0.475191
     32          6           0       -0.932326    3.316736   -0.673256
     33          6           0       -1.117494    4.783331   -0.293511
     34          1           0       -1.783099    2.728210   -0.305590
     35          1           0       -0.939512    3.204855   -1.764539
     36          1           0       -2.053859    5.183319   -0.691334
     37          1           0       -1.135644    4.906143    0.795114
     38          1           0       -0.297537    5.395982   -0.682149
 ---------------------------------------------------------------------
                    Distance matrix (angstroms):
                    1          2          3          4          5
     1  C    0.000000
     2  C    1.398529   0.000000
     3  C    2.429333   1.406955   0.000000
     4  C    2.855557   2.456982   1.395676   0.000000
     5  C    2.435081   2.773370   2.367881   1.387137   0.000000
     6  C    1.385489   2.385876   2.751103   2.440057   1.407741
     7  H    1.084807   2.157433   3.413624   3.940325   3.427922
     8  H    3.941037   3.447958   2.178361   1.085546   2.158129
     9  H    3.406524   3.858426   3.358282   2.137484   1.085308
    10  H    2.140997   3.375001   3.835962   3.409074   2.154581
    11  N    3.546934   2.217143   1.384041   2.542564   3.717503
    12  N    2.520805   1.383415   2.286789   3.613548   4.138794
    13  C    3.514765   2.141182   2.213163   3.593356   4.506559
    14  C    4.884742   3.623076   2.506365   3.147712   4.510965
    15  H    5.375030   4.143826   3.074476   3.622601   4.954508
    16  H    5.033206   3.945532   2.624210   2.778107   4.152265
    17  H    5.595121   4.271411   3.327467   4.079356   5.419813
    18  S    6.897281   5.923548   6.051987   7.111200   7.910839
    19  O    7.038351   6.307826   6.656753   7.658425   8.241578
    20  O    8.034290   6.945876   7.011011   8.134278   9.052287
    21  C    5.410481   4.347610   4.629890   5.856227   6.649202
    22  C    5.715858   4.430081   4.400227   5.652733   6.674349
    23  H    4.531956   3.576098   3.910833   5.057752   5.737791
    24  H    5.608132   4.663345   5.212514   6.504615   7.177605
    25  C    4.921537   3.595910   3.671546   5.015722   6.000892
    26  H    5.924355   4.608887   4.254698   5.345026   6.481681
    27  H    6.728273   5.445990   5.436947   6.694166   7.740998
    28  C    5.943648   4.598147   4.395632   5.601401   6.716659
    29  H    4.975485   3.802586   4.240058   5.630019   6.443459
    30  H    6.346957   4.961911   4.450765   5.501990   6.746706
    31  H    6.848519   5.529796   5.440596   6.677484   7.772613
    32  C    5.779172   4.570702   4.421864   5.516643   6.520239
    33  C    7.169565   5.993187   5.688220   6.621516   7.673912
    34  H    5.049843   3.885761   3.587665   4.560984   5.552469
    35  H    5.637686   4.559125   4.737858   5.907678   6.741107
    36  H    7.344851   6.300535   6.040922   6.864480   7.806735
    37  H    7.525437   6.297768   5.752154   6.554934   7.715363
    38  H    7.938142   6.741860   6.542477   7.565561   8.620110
                    6          7          8          9         10
     6  C    0.000000
     7  H    2.164841   0.000000
     8  H    3.426854   5.025811   0.000000
     9  H    2.156672   4.312373   2.476417   0.000000
    10  H    1.085151   2.495990   4.305258   2.464236   0.000000
    11  N    4.104946   4.373231   2.909491   4.648658   5.188639
    12  N    3.720307   2.833581   4.464347   5.223377   4.640390
    13  C    4.477842   4.043101   4.178884   5.543735   5.503676
    14  C    5.219579   5.776848   2.989559   5.249521   6.295693
    15  H    5.686842   6.251573   3.383067   5.641589   6.744173
    16  H    5.093067   6.021158   2.312799   4.721392   6.125432
    17  H    6.051526   6.408661   3.928056   6.176391   7.130251
    18  S    7.817707   7.114211   7.494997   8.814102   8.667005
    19  O    7.964936   7.090081   8.160358   9.122824   8.681246
    20  O    9.009060   8.251186   8.442215   9.976391   9.907568
    21  C    6.461509   5.616909   6.373648   7.642945   7.355754
    22  C    6.702194   6.091962   6.007306   7.658290   7.701221
    23  H    5.518039   4.778171   5.647870   6.713462   6.382546
    24  H    6.795666   5.612688   7.131497   8.211293   7.621379
    25  C    5.964069   5.295234   5.466286   7.025029   6.970896
    26  H    6.726665   6.461699   5.522355   7.384699   7.759050
    27  H    7.756933   7.041916   7.004626   8.726032   8.751393
    28  C    6.861957   6.401689   5.850737   7.671477   7.894742
    29  H    6.173970   5.127033   6.221082   7.507959   7.101613
    30  H    7.104794   6.945680   5.552401   7.622703   8.173633
    31  H    7.847389   7.205008   6.934422   8.744229   8.861788
    32  C    6.633438   6.219727   5.798527   7.436096   7.611163
    33  C    7.914945   7.642797   6.729061   8.499849   8.880363
    34  H    5.759402   5.609615   4.828448   6.425897   6.739006
    35  H    6.628238   5.895566   6.355853   7.704525   7.533097
    36  H    8.021401   7.789921   6.986139   8.579199   8.921364
    37  H    8.142126   8.121774   6.487398   8.468886   9.143465
    38  H    8.785664   8.326131   7.705146   9.485794   9.750082
                   11         12         13         14         15
    11  N    0.000000
    12  N    2.244823   0.000000
    13  C    1.381497   1.308925   0.000000
    14  C    1.448550   3.647422   2.555672   0.000000
    15  H    2.113503   4.128835   3.043113   1.095505   0.000000
    16  H    2.071170   4.287412   3.375909   1.091493   1.780222
    17  H    2.097598   4.026769   2.800633   1.090586   1.781144
    18  S    5.287489   5.109975   4.692675   5.663564   6.521771
    19  O    6.145391   5.581290   5.487539   6.735387   7.650171
    20  O    6.038273   5.976401   5.380775   6.210105   6.919084
    21  C    3.854654   3.364073   2.997284   4.518568   5.289046
    22  C    3.267807   3.406330   2.517517   3.593337   4.185229
    23  H    3.407656   2.835540   2.708503   4.265588   5.142989
    24  H    4.527434   3.516048   3.426134   5.342136   6.013009
    25  C    2.557044   2.464961   1.504668   3.155281   3.479830
    26  H    3.057615   3.854022   2.792148   3.010714   3.712455
    27  H    4.242823   4.329065   3.455946   4.398546   4.841588
    28  C    3.148047   3.639226   2.559966   3.200126   3.057388
    29  H    3.358598   2.467439   2.055731   4.167590   4.430096
    30  H    3.102403   4.211619   2.963989   2.661111   2.468387
    31  H    4.193580   4.432980   3.463890   4.209901   4.063012
    32  C    3.448573   3.790011   2.988355   3.622306   3.120468
    33  C    4.700041   5.303673   4.453084   4.507215   3.732253
    34  H    2.791096   3.406540   2.662849   3.026823   2.463053
    35  H    3.948424   3.642251   3.180834   4.440051   4.057913
    36  H    5.245437   5.737163   5.053979   5.138667   4.273009
    37  H    4.695654   5.735921   4.724980   4.168427   3.287367
    38  H    5.475885   5.885589   5.044760   5.300272   4.619431
                   16         17         18         19         20
    16  H    0.000000
    17  H    1.765336   0.000000
    18  S    6.130426   4.948943   0.000000
    19  O    7.123300   6.153616   1.472872   0.000000
    20  O    6.794499   5.343622   1.475035   2.572373   0.000000
    21  C    5.167241   4.020317   1.832776   2.651550   2.656100
    22  C    4.421076   2.955482   2.768903   3.974294   3.005596
    23  H    4.763890   3.969272   2.378433   2.836535   3.540199
    24  H    6.068235   4.921059   2.359212   2.785238   2.954822
    25  C    4.152042   2.927698   4.169714   5.177251   4.473836
    26  H    3.703992   2.173587   2.930957   4.252092   3.216218
    27  H    5.269983   3.641696   2.935686   4.218189   2.615117
    28  C    4.288559   2.952238   5.305383   6.478835   5.289742
    29  H    5.149592   4.019237   4.406588   5.215163   4.676378
    30  H    3.690531   2.230390   5.389582   6.681597   5.339252
    31  H    5.283396   3.794594   5.366771   6.565762   5.070342
    32  C    4.659064   3.796684   6.671447   7.734572   6.757042
    33  C    5.469924   4.619449   7.834528   9.001436   7.718663
    34  H    3.962439   3.500775   6.894780   7.901412   7.182746
    35  H    5.466941   4.646353   6.850758   7.773846   6.963765
    36  H    6.025385   5.427884   8.780555   9.888189   8.733553
    37  H    5.038701   4.227325   7.930805   9.186888   7.791598
    38  H    6.307138   5.233000   7.906159   9.089817   7.603275
                   21         22         23         24         25
    21  C    0.000000
    22  C    1.520268   0.000000
    23  H    1.092519   2.201513   0.000000
    24  H    1.095069   2.187706   1.773590   0.000000
    25  C    2.527183   1.539839   2.828886   2.833457   0.000000
    26  H    2.155962   1.097528   2.558472   3.084371   2.179391
    27  H    2.144749   1.094523   3.085201   2.500320   2.164635
    28  C    3.886674   2.544477   4.297072   4.192550   1.537043
    29  H    2.680200   2.143958   3.049055   2.537399   1.096772
    30  H    4.203990   2.737180   4.577093   4.737522   2.182811
    31  H    4.112741   2.780603   4.751710   4.253939   2.141536
    32  C    5.087842   3.920572   5.314500   5.271758   2.562833
    33  C    6.390208   5.077439   6.713632   6.590128   3.916189
    34  H    5.267458   4.209920   5.273496   5.564903   2.817817
    35  H    5.165547   4.215357   5.394166   5.127859   2.759524
    36  H    7.249837   6.015936   7.487030   7.399369   4.732001
    37  H    6.624606   5.213814   6.931480   6.984259   4.243988
    38  H    6.555395   5.230963   7.035590   6.649803   4.214988
                   26         27         28         29         30
    26  H    0.000000
    27  H    1.759084   0.000000
    28  C    2.855445   2.699808   0.000000
    29  H    3.061272   2.518753   2.140118   0.000000
    30  H    2.613210   2.906850   1.097492   3.057601   0.000000
    31  H    3.251096   2.490616   1.097573   2.397510   1.748682
    32  C    4.238045   4.170596   1.528042   2.833486   2.160931
    33  C    5.272403   5.114374   2.533533   4.205369   2.766928
    34  H    4.373746   4.699083   2.160975   3.238037   2.515210
    35  H    4.763799   4.435349   2.153109   2.590895   3.062376
    36  H    6.233855   6.120279   3.488877   4.918974   3.771544
    37  H    5.183380   5.263673   2.792330   4.767141   2.575065
    38  H    5.532225   5.041457   2.795972   4.358381   3.126474
                   31         32         33         34         35
    31  H    0.000000
    32  C    2.156722   0.000000
    33  C    2.747519   1.526235   0.000000
    34  H    3.065285   1.097887   2.160254   0.000000
    35  H    2.514743   1.097027   2.164991   1.751389   0.000000
    36  H    3.757658   2.177681   1.093176   2.499934   2.511545
    37  H    3.095710   2.173399   1.095681   2.524706   3.079720
    38  H    2.558515   2.174005   1.094856   3.076638   2.526804
                   36         37         38
    36  H    0.000000
    37  H    1.769032   0.000000
    38  H    1.769174   1.767674   0.000000
 Stoichiometry    C14H19N2O2S(2)
 Framework group  C1[X(C14H19N2O2S)]
 Deg. of freedom   108
 Full point group                 C1      NOp   1
 Largest Abelian subgroup         C1      NOp   1
 Largest concise Abelian subgroup C1      NOp   1
                         Standard orientation:                         
 ---------------------------------------------------------------------
 Center     Atomic      Atomic             Coordinates (Angstroms)
 Number     Number       Type             X           Y           Z
 ---------------------------------------------------------------------
      1          6           0       -2.846355   -2.093288   -1.396876
      2          6           0       -2.027806   -1.120657   -0.813909
      3          6           0       -2.244680   -0.726334    0.519132
      4          6           0       -3.268131   -1.262160    1.302298
      5          6           0       -4.068816   -2.224612    0.705019
      6          6           0       -3.861017   -2.635950   -0.625152
      7          1           0       -2.679463   -2.400568   -2.423780
      8          1           0       -3.442200   -0.944617    2.325663
      9          1           0       -4.877325   -2.668816    1.276761
     10          1           0       -4.513010   -3.391854   -1.050673
     11          7           0       -1.269835    0.220762    0.780393
     12          7           0       -0.962483   -0.419006   -1.349270
     13          6           0       -0.549133    0.368494   -0.388922
     14          6           0       -1.145574    0.946006    2.028141
     15          1           0       -1.661245    1.911653    1.986452
     16          1           0       -1.586201    0.342364    2.823643
     17          1           0       -0.095827    1.111747    2.272963
     18         16           0        3.778487   -1.290438    0.346505
     19          8           0        4.098653   -2.548626   -0.349058
     20          8           0        4.743933   -0.177070    0.410178
     21          6           0        2.277595   -0.625011   -0.468112
     22          6           0        1.890898    0.722622    0.119738
     23          1           0        1.508368   -1.392635   -0.355677
     24          1           0        2.546243   -0.559037   -1.527664
     25          6           0        0.629363    1.288600   -0.557980
     26          1           0        1.731541    0.625264    1.201263
     27          1           0        2.720347    1.423984   -0.014749
     28          6           0        0.369349    2.745205   -0.141811
     29          1           0        0.802311    1.280596   -1.641000
     30          1           0        0.375773    2.845213    0.951096
     31          1           0        1.214421    3.347817   -0.498713
     32          6           0       -0.932321    3.315447   -0.703410
     33          6           0       -1.121939    4.784249   -0.334552
     34          1           0       -1.782962    2.727615   -0.334329
     35          1           0       -0.935777    3.195905   -1.793899
     36          1           0       -2.057910    5.179350   -0.738143
     37          1           0       -1.143836    4.914646    0.753123
     38          1           0       -0.302101    5.395990   -0.724870
 ---------------------------------------------------------------------
 Rotational constants (GHZ):           0.3866411           0.2190420           0.1589483
 Standard basis: def2TZVP (5D, 7F)
 There are   804 symmetry adapted cartesian basis functions of A   symmetry.
 There are   709 symmetry adapted basis functions of A   symmetry.
   709 basis functions,  1139 primitive gaussians,   804 cartesian basis functions
    75 alpha electrons       74 beta electrons
       nuclear repulsion energy      1578.4620283551 Hartrees.
 NAtoms=   38 NActive=   38 NUniq=   38 SFac= 1.00D+00 NAtFMM=   60 NAOKFM=F Big=F
 Integral buffers will be    131072 words long.
 Raffenetti 2 integral format.
 Two-electron integral symmetry is turned on.
 ------------------------------------------------------------------------------
 Polarizable Continuum Model (PCM)
 =================================
 Model                : PCM.
 Atomic radii         : UFF (Universal Force Field).
 Polarization charges : Total charges.
 Charge compensation  : None.
 Solution method      : On-the-fly selection.
 Cavity type          : Scaled VdW (van der Waals Surface) (Alpha=1.100).
 Cavity algorithm     : GePol (No added spheres)
                        Default sphere list used, NSphG=   38.
                        Lebedev-Laikov grids with approx.  5.0 points / Ang**2.
                        Smoothing algorithm: York/Karplus (Gamma=1.0000).
                        Polarization charges: spherical gaussians, with
                                              point-specific exponents (IZeta= 3).
                        Self-potential: point-specific (ISelfS= 7).
                        Self-field    : sphere-specific E.n sum rule (ISelfD= 2).
 Solvent              : n,n-DiMethylFormamide, Eps=  37.219000 Eps(inf)=   2.046330
 ------------------------------------------------------------------------------
 One-electron integrals computed using PRISM.
   1 Symmetry operations used in ECPInt.
 ECPInt:  NShTT=   41328 NPrTT=  126240 LenC2=   36225 LenP2D=   78914.
 LDataN:  DoStor=T MaxTD1= 6 Len=  172
 Number of processors reduced to  37 by ecpmxn.
 NBasis=   709 RedAO= T EigKep=  8.05D-06  NBF=   709
 NBsUse=   709 1.00D-06 EigRej= -1.00D+00 NBFU=   709
 ExpMin= 9.52D-02 ExpMax= 6.07D+04 ExpMxC= 2.07D+03 IAcc=3 IRadAn=         5 AccDes= 0.00D+00
 Harris functional with IExCor= 1009 and IRadAn=       5 diagonalized for initial guess.
 HarFok:  IExCor= 1009 AccDes= 0.00D+00 IRadAn=         5 IDoV= 1 UseB2=F ITyADJ=14
 ICtDFT=  3500011 ScaDFX=  1.000000  1.000000  1.000000  1.000000
 FoFCou: FMM=F IPFlag=           0 FMFlag=      100000 FMFlg1=           0
         NFxFlg=           0 DoJE=T BraDBF=F KetDBF=T FulRan=T
         wScrn=  0.000000 ICntrl=       500 IOpCl=  0 I1Cent=   200000004 NGrid=           0
         NMat0=    1 NMatS0=      1 NMatT0=    0 NMatD0=    1 NMtDS0=    0 NMtDT0=    0
 Petite list used in FoFCou.
 Initial guess <Sx>= 0.0000 <Sy>= 0.0000 <Sz>= 0.5000 <S**2>= 0.7500 S= 0.5000
 Requested convergence on RMS density matrix=1.00D-08 within 128 cycles.
 Requested convergence on MAX density matrix=1.00D-06.
 Requested convergence on             energy=1.00D-06.
 No special actions if energy rises.
 Inv3:  Mode=1 IEnd=    22671003.
 Iteration    1 A*A^-1 deviation from unit magnitude is 3.33D-15 for   1150.
 Iteration    1 A*A^-1 deviation from orthogonality  is 2.99D-15 for   2039    828.
 Iteration    1 A^-1*A deviation from unit magnitude is 3.22D-15 for    593.
 Iteration    1 A^-1*A deviation from orthogonality  is 2.91D-15 for   2169   2145.
 Error on total polarization charges =  0.01765
 SCF Done:  E(UM062X) =  -1203.01546552     A.U. after   16 cycles
            NFock= 16  Conv=0.85D-08     -V/T= 2.0040
 <Sx>= 0.0000 <Sy>= 0.0000 <Sz>= 0.5000 <S**2>= 0.7569 S= 0.5035
 <L.S>=  0.00000000000    
 Annihilation of the first spin contaminant:
 S**2 before annihilation     0.7569,   after     0.7500

 **********************************************************************

            Population analysis using the SCF Density.

 **********************************************************************

 Orbital symmetries:
 Alpha Orbitals:
       Occupied  (A) (A) (A) (A) (A) (A) (A) (A) (A) (A) (A) (A)
                 (A) (A) (A) (A) (A) (A) (A) (A) (A) (A) (A) (A)
                 (A) (A) (A) (A) (A) (A) (A) (A) (A) (A) (A) (A)
                 (A) (A) (A) (A) (A) (A) (A) (A) (A) (A) (A) (A)
                 (A) (A) (A) (A) (A) (A) (A) (A) (A) (A) (A) (A)
                 (A) (A) (A) (A) (A) (A) (A) (A) (A) (A) (A) (A)
                 (A) (A) (A)
       Virtual   (A) (A) (A) (A) (A) (A) (A) (A) (A) (A) (A) (A)
                 (A) (A) (A) (A) (A) (A) (A) (A) (A) (A) (A) (A)
                 (A) (A) (A) (A) (A) (A) (A) (A) (A) (A) (A) (A)
                 (A) (A) (A) (A) (A) (A) (A) (A) (A) (A) (A) (A)
                 (A) (A) (A) (A) (A) (A) (A) (A) (A) (A) (A) (A)
                 (A) (A) (A) (A) (A) (A) (A) (A) (A) (A) (A) (A)
                 (A) (A) (A) (A) (A) (A) (A) (A) (A) (A) (A) (A)
                 (A) (A) (A) (A) (A) (A) (A) (A) (A) (A) (A) (A)
                 (A) (A) (A) (A) (A) (A) (A) (A) (A) (A) (A) (A)
                 (A) (A) (A) (A) (A) (A) (A) (A) (A) (A) (A) (A)
                 (A) (A) (A) (A) (A) (A) (A) (A) (A) (A) (A) (A)
                 (A) (A) (A) (A) (A) (A) (A) (A) (A) (A) (A) (A)
                 (A) (A) (A) (A) (A) (A) (A) (A) (A) (A) (A) (A)
                 (A) (A) (A) (A) (A) (A) (A) (A) (A) (A) (A) (A)
                 (A) (A) (A) (A) (A) (A) (A) (A) (A) (A) (A) (A)
                 (A) (A) (A) (A) (A) (A) (A) (A) (A) (A) (A) (A)
                 (A) (A) (A) (A) (A) (A) (A) (A) (A) (A) (A) (A)
                 (A) (A) (A) (A) (A) (A) (A) (A) (A) (A) (A) (A)
                 (A) (A) (A) (A) (A) (A) (A) (A) (A) (A) (A) (A)
                 (A) (A) (A) (A) (A) (A) (A) (A) (A) (A) (A) (A)
                 (A) (A) (A) (A) (A) (A) (A) (A) (A) (A) (A) (A)
                 (A) (A) (A) (A) (A) (A) (A) (A) (A) (A) (A) (A)
                 (A) (A) (A) (A) (A) (A) (A) (A) (A) (A) (A) (A)
                 (A) (A) (A) (A) (A) (A) (A) (A) (A) (A) (A) (A)
                 (A) (A) (A) (A) (A) (A) (A) (A) (A) (A) (A) (A)
                 (A) (A) (A) (A) (A) (A) (A) (A) (A) (A) (A) (A)
                 (A) (A) (A) (A) (A) (A) (A) (A) (A) (A) (A) (A)
                 (A) (A) (A) (A) (A) (A) (A) (A) (A) (A) (A) (A)
                 (A) (A) (A) (A) (A) (A) (A) (A) (A) (A) (A) (A)
                 (A) (A) (A) (A) (A) (A) (A) (A) (A) (A) (A) (A)
                 (A) (A) (A) (A) (A) (A) (A) (A) (A) (A) (A) (A)
                 (A) (A) (A) (A) (A) (A) (A) (A) (A) (A) (A) (A)
                 (A) (A) (A) (A) (A) (A) (A) (A) (A) (A) (A) (A)
                 (A) (A) (A) (A) (A) (A) (A) (A) (A) (A) (A) (A)
                 (A) (A) (A) (A) (A) (A) (A) (A) (A) (A) (A) (A)
                 (A) (A) (A) (A) (A) (A) (A) (A) (A) (A) (A) (A)
                 (A) (A) (A) (A) (A) (A) (A) (A) (A) (A) (A) (A)
                 (A) (A) (A) (A) (A) (A) (A) (A) (A) (A) (A) (A)
                 (A) (A) (A) (A) (A) (A) (A) (A) (A) (A) (A) (A)
                 (A) (A) (A) (A) (A) (A) (A) (A) (A) (A) (A) (A)
                 (A) (A) (A) (A) (A) (A) (A) (A) (A) (A) (A) (A)
                 (A) (A) (A) (A) (A) (A) (A) (A) (A) (A) (A) (A)
                 (A) (A) (A) (A) (A) (A) (A) (A) (A) (A) (A) (A)
                 (A) (A) (A) (A) (A) (A) (A) (A) (A) (A) (A) (A)
                 (A) (A) (A) (A) (A) (A) (A) (A) (A) (A) (A) (A)
                 (A) (A) (A) (A) (A) (A) (A) (A) (A) (A) (A) (A)
                 (A) (A) (A) (A) (A) (A) (A) (A) (A) (A) (A) (A)
                 (A) (A) (A) (A) (A) (A) (A) (A) (A) (A) (A) (A)
                 (A) (A) (A) (A) (A) (A) (A) (A) (A) (A) (A) (A)
                 (A) (A) (A) (A) (A) (A) (A) (A) (A) (A) (A) (A)
                 (A) (A) (A) (A) (A) (A) (A) (A) (A) (A) (A) (A)
                 (A) (A) (A) (A) (A) (A) (A) (A) (A) (A) (A) (A)
                 (A) (A) (A) (A) (A) (A) (A) (A) (A) (A)
 Beta  Orbitals:
       Occupied  (A) (A) (A) (A) (A) (A) (A) (A) (A) (A) (A) (A)
                 (A) (A) (A) (A) (A) (A) (A) (A) (A) (A) (A) (A)
                 (A) (A) (A) (A) (A) (A) (A) (A) (A) (A) (A) (A)
                 (A) (A) (A) (A) (A) (A) (A) (A) (A) (A) (A) (A)
                 (A) (A) (A) (A) (A) (A) (A) (A) (A) (A) (A) (A)
                 (A) (A) (A) (A) (A) (A) (A) (A) (A) (A) (A) (A)
                 (A) (A)
       Virtual   (A) (A) (A) (A) (A) (A) (A) (A) (A) (A) (A) (A)
                 (A) (A) (A) (A) (A) (A) (A) (A) (A) (A) (A) (A)
                 (A) (A) (A) (A) (A) (A) (A) (A) (A) (A) (A) (A)
                 (A) (A) (A) (A) (A) (A) (A) (A) (A) (A) (A) (A)
                 (A) (A) (A) (A) (A) (A) (A) (A) (A) (A) (A) (A)
                 (A) (A) (A) (A) (A) (A) (A) (A) (A) (A) (A) (A)
                 (A) (A) (A) (A) (A) (A) (A) (A) (A) (A) (A) (A)
                 (A) (A) (A) (A) (A) (A) (A) (A) (A) (A) (A) (A)
                 (A) (A) (A) (A) (A) (A) (A) (A) (A) (A) (A) (A)
                 (A) (A) (A) (A) (A) (A) (A) (A) (A) (A) (A) (A)
                 (A) (A) (A) (A) (A) (A) (A) (A) (A) (A) (A) (A)
                 (A) (A) (A) (A) (A) (A) (A) (A) (A) (A) (A) (A)
                 (A) (A) (A) (A) (A) (A) (A) (A) (A) (A) (A) (A)
                 (A) (A) (A) (A) (A) (A) (A) (A) (A) (A) (A) (A)
                 (A) (A) (A) (A) (A) (A) (A) (A) (A) (A) (A) (A)
                 (A) (A) (A) (A) (A) (A) (A) (A) (A) (A) (A) (A)
                 (A) (A) (A) (A) (A) (A) (A) (A) (A) (A) (A) (A)
                 (A) (A) (A) (A) (A) (A) (A) (A) (A) (A) (A) (A)
                 (A) (A) (A) (A) (A) (A) (A) (A) (A) (A) (A) (A)
                 (A) (A) (A) (A) (A) (A) (A) (A) (A) (A) (A) (A)
                 (A) (A) (A) (A) (A) (A) (A) (A) (A) (A) (A) (A)
                 (A) (A) (A) (A) (A) (A) (A) (A) (A) (A) (A) (A)
                 (A) (A) (A) (A) (A) (A) (A) (A) (A) (A) (A) (A)
                 (A) (A) (A) (A) (A) (A) (A) (A) (A) (A) (A) (A)
                 (A) (A) (A) (A) (A) (A) (A) (A) (A) (A) (A) (A)
                 (A) (A) (A) (A) (A) (A) (A) (A) (A) (A) (A) (A)
                 (A) (A) (A) (A) (A) (A) (A) (A) (A) (A) (A) (A)
                 (A) (A) (A) (A) (A) (A) (A) (A) (A) (A) (A) (A)
                 (A) (A) (A) (A) (A) (A) (A) (A) (A) (A) (A) (A)
                 (A) (A) (A) (A) (A) (A) (A) (A) (A) (A) (A) (A)
                 (A) (A) (A) (A) (A) (A) (A) (A) (A) (A) (A) (A)
                 (A) (A) (A) (A) (A) (A) (A) (A) (A) (A) (A) (A)
                 (A) (A) (A) (A) (A) (A) (A) (A) (A) (A) (A) (A)
                 (A) (A) (A) (A) (A) (A) (A) (A) (A) (A) (A) (A)
                 (A) (A) (A) (A) (A) (A) (A) (A) (A) (A) (A) (A)
                 (A) (A) (A) (A) (A) (A) (A) (A) (A) (A) (A) (A)
                 (A) (A) (A) (A) (A) (A) (A) (A) (A) (A) (A) (A)
                 (A) (A) (A) (A) (A) (A) (A) (A) (A) (A) (A) (A)
                 (A) (A) (A) (A) (A) (A) (A) (A) (A) (A) (A) (A)
                 (A) (A) (A) (A) (A) (A) (A) (A) (A) (A) (A) (A)
                 (A) (A) (A) (A) (A) (A) (A) (A) (A) (A) (A) (A)
                 (A) (A) (A) (A) (A) (A) (A) (A) (A) (A) (A) (A)
                 (A) (A) (A) (A) (A) (A) (A) (A) (A) (A) (A) (A)
                 (A) (A) (A) (A) (A) (A) (A) (A) (A) (A) (A) (A)
                 (A) (A) (A) (A) (A) (A) (A) (A) (A) (A) (A) (A)
                 (A) (A) (A) (A) (A) (A) (A) (A) (A) (A) (A) (A)
                 (A) (A) (A) (A) (A) (A) (A) (A) (A) (A) (A) (A)
                 (A) (A) (A) (A) (A) (A) (A) (A) (A) (A) (A) (A)
                 (A) (A) (A) (A) (A) (A) (A) (A) (A) (A) (A) (A)
                 (A) (A) (A) (A) (A) (A) (A) (A) (A) (A) (A) (A)
                 (A) (A) (A) (A) (A) (A) (A) (A) (A) (A) (A) (A)
                 (A) (A) (A) (A) (A) (A) (A) (A) (A) (A) (A) (A)
                 (A) (A) (A) (A) (A) (A) (A) (A) (A) (A) (A)
 The electronic state is 2-A.
 Alpha  occ. eigenvalues --  -90.07951 -19.66004 -19.65934 -14.81161 -14.74184
 Alpha  occ. eigenvalues --  -10.61737 -10.59570 -10.58396 -10.58086 -10.56683
 Alpha  occ. eigenvalues --  -10.56608 -10.56282 -10.55144 -10.54563 -10.54511
 Alpha  occ. eigenvalues --  -10.54158 -10.54117 -10.53447 -10.52337  -8.41596
 Alpha  occ. eigenvalues --   -6.33915  -6.33481  -6.33453  -1.24013  -1.15027
 Alpha  occ. eigenvalues --   -1.14259  -1.00724  -0.96278  -0.93982  -0.89878
 Alpha  occ. eigenvalues --   -0.85895  -0.85135  -0.82676  -0.81054  -0.77214
 Alpha  occ. eigenvalues --   -0.73587  -0.70605  -0.69741  -0.67953  -0.67051
 Alpha  occ. eigenvalues --   -0.64993  -0.59505  -0.59227  -0.58263  -0.58079
 Alpha  occ. eigenvalues --   -0.56641  -0.56460  -0.56059  -0.52926  -0.52892
 Alpha  occ. eigenvalues --   -0.51699  -0.50834  -0.50283  -0.49978  -0.48570
 Alpha  occ. eigenvalues --   -0.48184  -0.47736  -0.47271  -0.45113  -0.44164
 Alpha  occ. eigenvalues --   -0.43789  -0.43007  -0.42620  -0.41958  -0.41904
 Alpha  occ. eigenvalues --   -0.41423  -0.40784  -0.39945  -0.38867  -0.38461
 Alpha  occ. eigenvalues --   -0.36920  -0.35527  -0.31832  -0.28597  -0.28433
 Alpha virt. eigenvalues --    0.00182   0.03842   0.05683   0.06585   0.06743
 Alpha virt. eigenvalues --    0.07558   0.08036   0.09010   0.09255   0.10200
 Alpha virt. eigenvalues --    0.10465   0.10982   0.11449   0.12072   0.12763
 Alpha virt. eigenvalues --    0.13102   0.13632   0.13805   0.14447   0.14978
 Alpha virt. eigenvalues --    0.15720   0.16270   0.17243   0.17565   0.17884
 Alpha virt. eigenvalues --    0.18550   0.19110   0.19557   0.20156   0.20801
 Alpha virt. eigenvalues --    0.21028   0.21657   0.21996   0.22124   0.23294
 Alpha virt. eigenvalues --    0.23762   0.24270   0.24602   0.25318   0.25630
 Alpha virt. eigenvalues --    0.26047   0.27000   0.27251   0.27625   0.28492
 Alpha virt. eigenvalues --    0.28995   0.29065   0.29927   0.30138   0.30437
 Alpha virt. eigenvalues --    0.31622   0.32102   0.32380   0.32630   0.32963
 Alpha virt. eigenvalues --    0.33561   0.33815   0.34887   0.35905   0.36376
 Alpha virt. eigenvalues --    0.36791   0.37177   0.37547   0.38015   0.39608
 Alpha virt. eigenvalues --    0.39984   0.40574   0.40978   0.41602   0.42010
 Alpha virt. eigenvalues --    0.42969   0.43469   0.43544   0.43920   0.44115
 Alpha virt. eigenvalues --    0.44467   0.44986   0.45084   0.45719   0.46045
 Alpha virt. eigenvalues --    0.46421   0.47089   0.47327   0.47946   0.48466
 Alpha virt. eigenvalues --    0.48551   0.49216   0.49257   0.49871   0.50207
 Alpha virt. eigenvalues --    0.50423   0.50765   0.51340   0.51650   0.52151
 Alpha virt. eigenvalues --    0.52746   0.53162   0.53454   0.53586   0.54506
 Alpha virt. eigenvalues --    0.54675   0.55522   0.55662   0.55949   0.56470
 Alpha virt. eigenvalues --    0.57178   0.57415   0.58595   0.58955   0.59229
 Alpha virt. eigenvalues --    0.59858   0.61201   0.61507   0.62248   0.63226
 Alpha virt. eigenvalues --    0.64507   0.64684   0.65847   0.66396   0.67003
 Alpha virt. eigenvalues --    0.67292   0.68445   0.69355   0.69606   0.70803
 Alpha virt. eigenvalues --    0.71308   0.71901   0.73311   0.74242   0.74575
 Alpha virt. eigenvalues --    0.74862   0.75781   0.76477   0.77759   0.78210
 Alpha virt. eigenvalues --    0.79413   0.80004   0.80187   0.81336   0.82082
 Alpha virt. eigenvalues --    0.83221   0.83879   0.84912   0.85220   0.86523
 Alpha virt. eigenvalues --    0.87848   0.88464   0.88722   0.89276   0.89993
 Alpha virt. eigenvalues --    0.90436   0.90793   0.91270   0.92110   0.93206
 Alpha virt. eigenvalues --    0.93309   0.95004   0.95312   0.96249   0.96916
 Alpha virt. eigenvalues --    0.97352   0.98553   0.98921   1.00779   1.02010
 Alpha virt. eigenvalues --    1.02543   1.03516   1.05250   1.06040   1.06303
 Alpha virt. eigenvalues --    1.07900   1.08905   1.10332   1.11090   1.11405
 Alpha virt. eigenvalues --    1.12311   1.13706   1.14397   1.14735   1.16211
 Alpha virt. eigenvalues --    1.17031   1.17600   1.18484   1.19807   1.20957
 Alpha virt. eigenvalues --    1.21840   1.22642   1.24133   1.25019   1.26530
 Alpha virt. eigenvalues --    1.26850   1.28180   1.28329   1.29676   1.30704
 Alpha virt. eigenvalues --    1.31127   1.31937   1.32555   1.33909   1.34898
 Alpha virt. eigenvalues --    1.36290   1.37339   1.37991   1.38947   1.40164
 Alpha virt. eigenvalues --    1.41556   1.43110   1.44629   1.45095   1.45847
 Alpha virt. eigenvalues --    1.47127   1.47697   1.49222   1.49937   1.50302
 Alpha virt. eigenvalues --    1.50674   1.50751   1.52137   1.53056   1.53221
 Alpha virt. eigenvalues --    1.54133   1.54661   1.55287   1.55999   1.56932
 Alpha virt. eigenvalues --    1.57600   1.58003   1.58102   1.59048   1.59966
 Alpha virt. eigenvalues --    1.60356   1.61163   1.61413   1.62024   1.62845
 Alpha virt. eigenvalues --    1.63631   1.63979   1.64544   1.64949   1.65605
 Alpha virt. eigenvalues --    1.66302   1.67091   1.67843   1.68273   1.68425
 Alpha virt. eigenvalues --    1.69088   1.70015   1.70695   1.71221   1.71673
 Alpha virt. eigenvalues --    1.72672   1.73968   1.74859   1.75754   1.75888
 Alpha virt. eigenvalues --    1.77553   1.77951   1.79128   1.79750   1.80454
 Alpha virt. eigenvalues --    1.81561   1.82046   1.82866   1.83953   1.84225
 Alpha virt. eigenvalues --    1.85571   1.86229   1.87303   1.88467   1.89017
 Alpha virt. eigenvalues --    1.89253   1.90269   1.91016   1.93394   1.94128
 Alpha virt. eigenvalues --    1.95518   1.96173   1.97406   1.99116   1.99649
 Alpha virt. eigenvalues --    1.99963   2.00823   2.01698   2.01958   2.03138
 Alpha virt. eigenvalues --    2.03751   2.05175   2.07122   2.08324   2.09835
 Alpha virt. eigenvalues --    2.10363   2.11534   2.13049   2.13932   2.14678
 Alpha virt. eigenvalues --    2.14973   2.15514   2.17298   2.17544   2.18513
 Alpha virt. eigenvalues --    2.20595   2.22006   2.22552   2.22958   2.24052
 Alpha virt. eigenvalues --    2.24454   2.25366   2.26053   2.26460   2.27346
 Alpha virt. eigenvalues --    2.28811   2.30565   2.31682   2.32958   2.34025
 Alpha virt. eigenvalues --    2.34701   2.35672   2.36311   2.36568   2.37220
 Alpha virt. eigenvalues --    2.37444   2.39352   2.39772   2.40165   2.40818
 Alpha virt. eigenvalues --    2.41528   2.42125   2.43632   2.43864   2.44480
 Alpha virt. eigenvalues --    2.44950   2.46121   2.46709   2.47745   2.49087
 Alpha virt. eigenvalues --    2.49328   2.49788   2.51423   2.51608   2.53922
 Alpha virt. eigenvalues --    2.55169   2.55340   2.56129   2.57157   2.57399
 Alpha virt. eigenvalues --    2.58183   2.59187   2.59619   2.61056   2.61851
 Alpha virt. eigenvalues --    2.62811   2.63153   2.63620   2.64706   2.65200
 Alpha virt. eigenvalues --    2.65857   2.66677   2.67161   2.68517   2.69064
 Alpha virt. eigenvalues --    2.69363   2.70311   2.71082   2.71527   2.72254
 Alpha virt. eigenvalues --    2.72506   2.72963   2.74077   2.74356   2.75722
 Alpha virt. eigenvalues --    2.76774   2.77362   2.77672   2.78526   2.79979
 Alpha virt. eigenvalues --    2.81382   2.82173   2.82522   2.83305   2.83699
 Alpha virt. eigenvalues --    2.84156   2.84700   2.85682   2.87374   2.87531
 Alpha virt. eigenvalues --    2.88830   2.90346   2.90920   2.92066   2.93107
 Alpha virt. eigenvalues --    2.94317   2.95245   2.95871   2.96511   2.97089
 Alpha virt. eigenvalues --    2.98140   2.99411   3.00304   3.01739   3.02820
 Alpha virt. eigenvalues --    3.03570   3.04624   3.05873   3.06783   3.08237
 Alpha virt. eigenvalues --    3.09074   3.10003   3.10025   3.11135   3.11440
 Alpha virt. eigenvalues --    3.12166   3.13081   3.14589   3.14858   3.15075
 Alpha virt. eigenvalues --    3.15500   3.16271   3.17393   3.17838   3.18707
 Alpha virt. eigenvalues --    3.20381   3.21006   3.21307   3.22299   3.23402
 Alpha virt. eigenvalues --    3.24038   3.24543   3.25145   3.25944   3.26214
 Alpha virt. eigenvalues --    3.26935   3.27489   3.28282   3.28791   3.29752
 Alpha virt. eigenvalues --    3.31070   3.31626   3.32621   3.32935   3.33314
 Alpha virt. eigenvalues --    3.34751   3.36396   3.37088   3.37456   3.37852
 Alpha virt. eigenvalues --    3.38778   3.39667   3.40022   3.40299   3.41286
 Alpha virt. eigenvalues --    3.41669   3.43213   3.43777   3.43818   3.45370
 Alpha virt. eigenvalues --    3.45861   3.46603   3.47415   3.48531   3.49625
 Alpha virt. eigenvalues --    3.50099   3.50870   3.51451   3.52646   3.53263
 Alpha virt. eigenvalues --    3.53987   3.55511   3.56336   3.57592   3.58495
 Alpha virt. eigenvalues --    3.58952   3.59757   3.60015   3.60616   3.62085
 Alpha virt. eigenvalues --    3.62909   3.64022   3.65331   3.66613   3.68703
 Alpha virt. eigenvalues --    3.68952   3.70060   3.71601   3.72048   3.73931
 Alpha virt. eigenvalues --    3.76008   3.76956   3.78591   3.78948   3.79996
 Alpha virt. eigenvalues --    3.81314   3.84816   3.86829   3.87920   3.88361
 Alpha virt. eigenvalues --    3.89630   3.91254   3.91300   3.92196   3.94344
 Alpha virt. eigenvalues --    3.95171   3.95887   3.97549   3.99672   4.00969
 Alpha virt. eigenvalues --    4.02262   4.04400   4.04890   4.05658   4.06456
 Alpha virt. eigenvalues --    4.07509   4.10783   4.13521   4.13810   4.14135
 Alpha virt. eigenvalues --    4.15447   4.16775   4.17914   4.18277   4.19710
 Alpha virt. eigenvalues --    4.20671   4.21732   4.22612   4.23673   4.25800
 Alpha virt. eigenvalues --    4.28123   4.29391   4.31474   4.32196   4.36074
 Alpha virt. eigenvalues --    4.37351   4.38474   4.39319   4.41029   4.41911
 Alpha virt. eigenvalues --    4.42796   4.49242   4.50064   4.52736   4.53800
 Alpha virt. eigenvalues --    4.54701   4.57123   4.58390   4.60914   4.61360
 Alpha virt. eigenvalues --    4.65957   4.67375   4.69022   4.69656   4.70938
 Alpha virt. eigenvalues --    4.73351   4.73732   4.78019   4.81793   4.82925
 Alpha virt. eigenvalues --    4.84311   4.85712   4.87498   4.92399   4.95534
 Alpha virt. eigenvalues --    5.00683   5.02183   5.05265   5.06912   5.07736
 Alpha virt. eigenvalues --    5.10043   5.11394   5.12615   5.13394   5.13577
 Alpha virt. eigenvalues --    5.13842   5.14293   5.14604   5.16273   5.17484
 Alpha virt. eigenvalues --    5.19919   5.20682   5.21334   5.22140   5.22713
 Alpha virt. eigenvalues --    5.24570   5.25771   5.26040   5.38122   5.41874
 Alpha virt. eigenvalues --    5.42223   5.44796   5.45392   5.47905   5.48651
 Alpha virt. eigenvalues --    5.52492   5.55514   5.55727   5.64599   5.65040
 Alpha virt. eigenvalues --    5.71229   5.71558   5.78791   5.84123   5.92060
 Alpha virt. eigenvalues --    6.15334   6.24271   6.24978   6.29905   6.32273
 Alpha virt. eigenvalues --    6.35361   6.60413   6.63931   6.69040   6.71521
 Alpha virt. eigenvalues --    6.80959   6.88020   8.97866   9.41974   9.66005
 Alpha virt. eigenvalues --   21.30969  22.39174  22.42788  22.44335  22.58979
 Alpha virt. eigenvalues --   22.59663  22.63376  22.67352  22.70344  22.74030
 Alpha virt. eigenvalues --   22.81076  22.98082  23.03501  23.57636  23.64676
 Alpha virt. eigenvalues --   32.69546  33.14735  43.54572  43.70371
  Beta  occ. eigenvalues --  -90.07564 -19.65450 -19.65389 -14.81160 -14.74184
  Beta  occ. eigenvalues --  -10.61737 -10.59419 -10.58396 -10.58086 -10.56683
  Beta  occ. eigenvalues --  -10.56601 -10.56289 -10.55144 -10.54563 -10.54511
  Beta  occ. eigenvalues --  -10.54158 -10.54115 -10.53447 -10.52337  -8.41381
  Beta  occ. eigenvalues --   -6.33375  -6.33369  -6.32875  -1.22393  -1.14258
  Beta  occ. eigenvalues --   -1.13122  -1.00723  -0.96238  -0.93821  -0.89495
  Beta  occ. eigenvalues --   -0.85710  -0.85064  -0.82528  -0.81009  -0.76580
  Beta  occ. eigenvalues --   -0.73392  -0.69741  -0.69062  -0.67501  -0.66943
  Beta  occ. eigenvalues --   -0.64969  -0.59384  -0.58480  -0.58038  -0.57223
  Beta  occ. eigenvalues --   -0.56056  -0.55241  -0.54711  -0.52738  -0.51909
  Beta  occ. eigenvalues --   -0.51632  -0.50691  -0.50013  -0.49790  -0.48187
  Beta  occ. eigenvalues --   -0.48105  -0.47632  -0.46949  -0.44078  -0.43708
  Beta  occ. eigenvalues --   -0.42844  -0.42367  -0.41593  -0.41403  -0.40896
  Beta  occ. eigenvalues --   -0.40786  -0.39948  -0.39510  -0.38854  -0.37981
  Beta  occ. eigenvalues --   -0.36915  -0.35508  -0.28603  -0.28431
  Beta virt. eigenvalues --   -0.11550   0.00185   0.03847   0.05688   0.06713
  Beta virt. eigenvalues --    0.07465   0.07583   0.08055   0.09042   0.09247
  Beta virt. eigenvalues --    0.10366   0.10447   0.11582   0.11878   0.12150
  Beta virt. eigenvalues --    0.12842   0.13077   0.13753   0.13843   0.14430
  Beta virt. eigenvalues --    0.15010   0.15707   0.16323   0.17236   0.17559
  Beta virt. eigenvalues --    0.17886   0.18574   0.19037   0.19553   0.20110
  Beta virt. eigenvalues --    0.20666   0.21009   0.21667   0.21973   0.22185
  Beta virt. eigenvalues --    0.23322   0.23844   0.24268   0.24577   0.25395
  Beta virt. eigenvalues --    0.25629   0.25951   0.26954   0.27235   0.27690
  Beta virt. eigenvalues --    0.28322   0.28862   0.29106   0.29847   0.30051
  Beta virt. eigenvalues --    0.30404   0.31710   0.32138   0.32397   0.32694
  Beta virt. eigenvalues --    0.33012   0.33590   0.33897   0.34833   0.35896
  Beta virt. eigenvalues --    0.36448   0.36795   0.37325   0.37565   0.38078
  Beta virt. eigenvalues --    0.39632   0.40026   0.40574   0.41056   0.41594
  Beta virt. eigenvalues --    0.42007   0.42863   0.43492   0.43607   0.43984
  Beta virt. eigenvalues --    0.44150   0.44594   0.45050   0.45163   0.45749
  Beta virt. eigenvalues --    0.46069   0.46471   0.47122   0.47316   0.47950
  Beta virt. eigenvalues --    0.48545   0.48758   0.49215   0.49371   0.49960
  Beta virt. eigenvalues --    0.50351   0.50477   0.50791   0.51394   0.51707
  Beta virt. eigenvalues --    0.52193   0.52755   0.53149   0.53546   0.53740
  Beta virt. eigenvalues --    0.54472   0.54748   0.55600   0.55717   0.55958
  Beta virt. eigenvalues --    0.56540   0.57226   0.57383   0.58625   0.59059
  Beta virt. eigenvalues --    0.59266   0.59886   0.61414   0.61593   0.62100
  Beta virt. eigenvalues --    0.63219   0.64551   0.64725   0.65904   0.66420
  Beta virt. eigenvalues --    0.67043   0.67309   0.68451   0.69506   0.69622
  Beta virt. eigenvalues --    0.70842   0.71310   0.71879   0.73383   0.74254
  Beta virt. eigenvalues --    0.74598   0.74900   0.75861   0.76551   0.77772
  Beta virt. eigenvalues --    0.78210   0.79562   0.80012   0.80230   0.81430
  Beta virt. eigenvalues --    0.82116   0.83273   0.83880   0.84988   0.85443
  Beta virt. eigenvalues --    0.86530   0.87943   0.88451   0.88764   0.89290
  Beta virt. eigenvalues --    0.90029   0.90443   0.90807   0.91336   0.92146
  Beta virt. eigenvalues --    0.93203   0.93376   0.95104   0.95499   0.96318
  Beta virt. eigenvalues --    0.96944   0.97521   0.98638   0.99129   1.01001
  Beta virt. eigenvalues --    1.02091   1.02569   1.03549   1.05273   1.06088
  Beta virt. eigenvalues --    1.06342   1.08014   1.08939   1.10437   1.11174
  Beta virt. eigenvalues --    1.11461   1.12357   1.13754   1.14431   1.14832
  Beta virt. eigenvalues --    1.16249   1.17075   1.17668   1.18488   1.19826
  Beta virt. eigenvalues --    1.21019   1.21945   1.22740   1.24216   1.25056
  Beta virt. eigenvalues --    1.26726   1.26868   1.28226   1.28384   1.29696
  Beta virt. eigenvalues --    1.30801   1.31185   1.32000   1.32712   1.33950
  Beta virt. eigenvalues --    1.34932   1.36318   1.37358   1.38119   1.39158
  Beta virt. eigenvalues --    1.40223   1.41697   1.43552   1.44848   1.45335
  Beta virt. eigenvalues --    1.45908   1.47311   1.48329   1.49323   1.49991
  Beta virt. eigenvalues --    1.50379   1.50888   1.51116   1.52236   1.53261
  Beta virt. eigenvalues --    1.53950   1.54418   1.54931   1.55494   1.56224
  Beta virt. eigenvalues --    1.57001   1.57637   1.58104   1.58223   1.59107
  Beta virt. eigenvalues --    1.60137   1.60477   1.61283   1.61469   1.62294
  Beta virt. eigenvalues --    1.63554   1.63831   1.64162   1.64725   1.65260
  Beta virt. eigenvalues --    1.65750   1.66460   1.67156   1.67992   1.68470
  Beta virt. eigenvalues --    1.68818   1.69526   1.70080   1.70819   1.71298
  Beta virt. eigenvalues --    1.71780   1.72817   1.74193   1.75114   1.75976
  Beta virt. eigenvalues --    1.77066   1.77757   1.78172   1.79172   1.79818
  Beta virt. eigenvalues --    1.80714   1.81912   1.82204   1.83017   1.84258
  Beta virt. eigenvalues --    1.84348   1.85733   1.86304   1.87506   1.88577
  Beta virt. eigenvalues --    1.89039   1.89785   1.90494   1.91106   1.93450
  Beta virt. eigenvalues --    1.94220   1.95622   1.96303   1.97531   1.99170
  Beta virt. eigenvalues --    1.99715   2.00160   2.00975   2.01836   2.01973
  Beta virt. eigenvalues --    2.03245   2.03768   2.05239   2.07219   2.08396
  Beta virt. eigenvalues --    2.09910   2.10520   2.11568   2.13140   2.13956
  Beta virt. eigenvalues --    2.14769   2.15070   2.15805   2.17389   2.17863
  Beta virt. eigenvalues --    2.18572   2.20800   2.22313   2.22721   2.23178
  Beta virt. eigenvalues --    2.24139   2.24589   2.25658   2.26143   2.26657
  Beta virt. eigenvalues --    2.27713   2.28886   2.30722   2.31776   2.33275
  Beta virt. eigenvalues --    2.34441   2.34737   2.35830   2.36446   2.36705
  Beta virt. eigenvalues --    2.37342   2.37572   2.39553   2.39996   2.40592
  Beta virt. eigenvalues --    2.41166   2.41611   2.42414   2.44028   2.44383
  Beta virt. eigenvalues --    2.44629   2.45114   2.46510   2.46835   2.47832
  Beta virt. eigenvalues --    2.49215   2.49377   2.49938   2.51562   2.51664
  Beta virt. eigenvalues --    2.53974   2.55214   2.55389   2.56174   2.57187
  Beta virt. eigenvalues --    2.57428   2.58254   2.59207   2.59637   2.61092
  Beta virt. eigenvalues --    2.61913   2.62893   2.63199   2.63749   2.64724
  Beta virt. eigenvalues --    2.65234   2.65865   2.66712   2.67253   2.68561
  Beta virt. eigenvalues --    2.69082   2.69432   2.70360   2.71140   2.71655
  Beta virt. eigenvalues --    2.72307   2.72679   2.73056   2.74122   2.74533
  Beta virt. eigenvalues --    2.75863   2.76795   2.77424   2.77759   2.78663
  Beta virt. eigenvalues --    2.80075   2.81460   2.82441   2.83080   2.83410
  Beta virt. eigenvalues --    2.84000   2.84450   2.85063   2.85759   2.87425
  Beta virt. eigenvalues --    2.87802   2.88928   2.90443   2.91066   2.92399
  Beta virt. eigenvalues --    2.93217   2.94410   2.95388   2.96122   2.96924
  Beta virt. eigenvalues --    2.97530   2.98233   2.99625   3.00911   3.01898
  Beta virt. eigenvalues --    3.03527   3.03785   3.04758   3.06196   3.07101
  Beta virt. eigenvalues --    3.08286   3.09147   3.10029   3.10078   3.11213
  Beta virt. eigenvalues --    3.11523   3.12209   3.13192   3.14630   3.14908
  Beta virt. eigenvalues --    3.15119   3.15628   3.16353   3.17539   3.17864
  Beta virt. eigenvalues --    3.18785   3.20410   3.21094   3.21454   3.22406
  Beta virt. eigenvalues --    3.23486   3.24090   3.24590   3.25171   3.26032
  Beta virt. eigenvalues --    3.26399   3.27084   3.27649   3.28320   3.29088
  Beta virt. eigenvalues --    3.29954   3.31083   3.31860   3.32725   3.33065
  Beta virt. eigenvalues --    3.33475   3.34806   3.36466   3.37208   3.37483
  Beta virt. eigenvalues --    3.37868   3.38806   3.39763   3.40080   3.40384
  Beta virt. eigenvalues --    3.41384   3.41712   3.43471   3.43931   3.44123
  Beta virt. eigenvalues --    3.45492   3.45949   3.46878   3.47635   3.48548
  Beta virt. eigenvalues --    3.49801   3.50181   3.50937   3.51674   3.52809
  Beta virt. eigenvalues --    3.53373   3.54061   3.55567   3.56397   3.57654
  Beta virt. eigenvalues --    3.58564   3.59052   3.59814   3.60035   3.60785
  Beta virt. eigenvalues --    3.62250   3.62931   3.64105   3.65355   3.66818
  Beta virt. eigenvalues --    3.68918   3.69173   3.70385   3.71996   3.72102
  Beta virt. eigenvalues --    3.73959   3.76091   3.77031   3.78649   3.79245
  Beta virt. eigenvalues --    3.80140   3.81457   3.84986   3.86987   3.88039
  Beta virt. eigenvalues --    3.88657   3.89716   3.91298   3.91447   3.92292
  Beta virt. eigenvalues --    3.94394   3.95243   3.95902   3.97573   3.99761
  Beta virt. eigenvalues --    4.01054   4.02332   4.04415   4.04897   4.05746
  Beta virt. eigenvalues --    4.06478   4.07535   4.10819   4.13566   4.13991
  Beta virt. eigenvalues --    4.14172   4.15685   4.16783   4.18029   4.18295
  Beta virt. eigenvalues --    4.19740   4.20814   4.21782   4.22650   4.23697
  Beta virt. eigenvalues --    4.25806   4.28234   4.29465   4.31701   4.32267
  Beta virt. eigenvalues --    4.36101   4.37467   4.38563   4.39351   4.41041
  Beta virt. eigenvalues --    4.41936   4.42828   4.49325   4.50189   4.52766
  Beta virt. eigenvalues --    4.53820   4.54713   4.57172   4.58480   4.60927
  Beta virt. eigenvalues --    4.61404   4.66039   4.67394   4.69060   4.69790
  Beta virt. eigenvalues --    4.71087   4.73354   4.73833   4.78097   4.81796
  Beta virt. eigenvalues --    4.83192   4.84438   4.85763   4.87510   4.92420
  Beta virt. eigenvalues --    4.95565   5.00691   5.02188   5.05279   5.06929
  Beta virt. eigenvalues --    5.07738   5.10100   5.11451   5.12698   5.13629
  Beta virt. eigenvalues --    5.14169   5.14374   5.14927   5.15140   5.16381
  Beta virt. eigenvalues --    5.17622   5.19966   5.20931   5.21376   5.22336
  Beta virt. eigenvalues --    5.22722   5.24888   5.26038   5.26121   5.38125
  Beta virt. eigenvalues --    5.41878   5.42573   5.45065   5.45486   5.47919
  Beta virt. eigenvalues --    5.48663   5.53019   5.55713   5.55838   5.64657
  Beta virt. eigenvalues --    5.65146   5.71231   5.71563   5.78795   5.84126
  Beta virt. eigenvalues --    5.92062   6.15337   6.26770   6.27346   6.32340
  Beta virt. eigenvalues --    6.34888   6.35366   6.62743   6.66024   6.69547
  Beta virt. eigenvalues --    6.72236   6.82268   6.89187   9.00714   9.42338
  Beta virt. eigenvalues --    9.66150  21.31158  22.39176  22.42792  22.44592
  Beta virt. eigenvalues --   22.58980  22.59663  22.63388  22.67354  22.70344
  Beta virt. eigenvalues --   22.74030  22.81084  22.98083  23.03501  23.57637
  Beta virt. eigenvalues --   23.64676  32.69546  33.14736  43.54464  43.70268
          Condensed to atoms (all electrons):
               1          2          3          4          5          6
     1  C    5.244285   0.238619   0.160819  -0.188088   0.033557   0.446061
     2  C    0.238619   5.186190   0.205604   0.132761  -0.116854   0.021894
     3  C    0.160819   0.205604   5.400224   0.151690   0.017424  -0.153956
     4  C   -0.188088   0.132761   0.151690   5.393668   0.423605   0.051440
     5  C    0.033557  -0.116854   0.017424   0.423605   4.996766   0.438771
     6  C    0.446061   0.021894  -0.153956   0.051440   0.438771   5.014839
     7  H    0.431825  -0.068943   0.022711  -0.007233   0.010275  -0.041477
     8  H    0.001883  -0.000314  -0.013985   0.375530   0.002795  -0.000672
     9  H    0.005924  -0.001415   0.010850  -0.044701   0.425032  -0.038235
    10  H   -0.048544   0.013424  -0.003239   0.009918  -0.045636   0.430348
    11  N    0.030658  -0.120826   0.463361  -0.084955   0.006706  -0.003844
    12  N   -0.059216   0.520499  -0.141316   0.042428  -0.008138   0.011791
    13  C   -0.020422  -0.151348  -0.190796   0.023741  -0.002713  -0.000590
    14  C    0.001142   0.013083  -0.040392  -0.020297   0.002426  -0.000739
    15  H   -0.000138  -0.000742   0.003394   0.002014  -0.000348   0.000041
    16  H    0.000483   0.004241  -0.017963  -0.008914   0.002178  -0.000361
    17  H   -0.000072  -0.001527   0.005797   0.000851  -0.000018   0.000016
    18  S   -0.000000   0.000052  -0.000003  -0.000001   0.000000   0.000000
    19  O    0.000000  -0.000017   0.000002   0.000000  -0.000000   0.000000
    20  O   -0.000000  -0.000004   0.000001   0.000000  -0.000000   0.000000
    21  C   -0.000127  -0.000244   0.000476   0.000137  -0.000008  -0.000011
    22  C    0.000366   0.002051  -0.001735  -0.000279  -0.000007   0.000003
    23  H   -0.000198  -0.002757   0.000875   0.000160  -0.000016   0.000033
    24  H    0.000035  -0.000159   0.000042  -0.000012   0.000002  -0.000004
    25  C   -0.004702  -0.024739   0.012270  -0.000274   0.000005   0.000030
    26  H    0.000008  -0.000290   0.000130  -0.000061   0.000006  -0.000004
    27  H   -0.000004  -0.000142   0.000175   0.000004  -0.000000   0.000000
    28  C    0.000361  -0.000365  -0.004996  -0.000498   0.000056  -0.000038
    29  H    0.000320   0.000796  -0.000132  -0.000209   0.000029  -0.000052
    30  H   -0.000016  -0.000747  -0.000073   0.000018   0.000004  -0.000001
    31  H   -0.000004   0.000103   0.000065   0.000006  -0.000000   0.000000
    32  C   -0.000079   0.001758   0.001275   0.000353  -0.000044   0.000008
    33  C    0.000002  -0.000126   0.000147  -0.000006   0.000001  -0.000000
    34  H    0.000030   0.001301  -0.002142  -0.000049  -0.000026   0.000032
    35  H   -0.000004  -0.000394   0.000042  -0.000010   0.000005  -0.000005
    36  H    0.000000   0.000008  -0.000006  -0.000001   0.000000   0.000000
    37  H   -0.000000  -0.000002   0.000051   0.000004  -0.000000   0.000000
    38  H   -0.000000   0.000004  -0.000010   0.000000  -0.000000   0.000000
               7          8          9         10         11         12
     1  C    0.431825   0.001883   0.005924  -0.048544   0.030658  -0.059216
     2  C   -0.068943  -0.000314  -0.001415   0.013424  -0.120826   0.520499
     3  C    0.022711  -0.013985   0.010850  -0.003239   0.463361  -0.141316
     4  C   -0.007233   0.375530  -0.044701   0.009918  -0.084955   0.042428
     5  C    0.010275   0.002795   0.425032  -0.045636   0.006706  -0.008138
     6  C   -0.041477  -0.000672  -0.038235   0.430348  -0.003844   0.011791
     7  H    0.491656   0.000044  -0.000125  -0.005225   0.000707   0.003218
     8  H    0.000044   0.453060  -0.003165  -0.000202   0.000923  -0.000224
     9  H   -0.000125  -0.003165   0.484453  -0.004015  -0.000086  -0.000020
    10  H   -0.005225  -0.000202  -0.004015   0.489878  -0.000005  -0.000062
    11  N    0.000707   0.000923  -0.000086  -0.000005   6.542566  -0.166813
    12  N    0.003218  -0.000224  -0.000020  -0.000062  -0.166813   6.571263
    13  C    0.000221   0.000192   0.000063   0.000071   0.320797   0.600275
    14  C    0.000049  -0.000674   0.000033  -0.000004   0.231131   0.002020
    15  H   -0.000001   0.000013  -0.000001   0.000000  -0.044704   0.000136
    16  H    0.000003  -0.001203   0.000017  -0.000002  -0.014685  -0.000709
    17  H   -0.000001  -0.000026  -0.000001   0.000000  -0.048211   0.001282
    18  S    0.000000  -0.000000   0.000000   0.000000  -0.000004   0.000331
    19  O   -0.000000  -0.000000  -0.000000  -0.000000  -0.000001   0.000001
    20  O   -0.000000   0.000000  -0.000000   0.000000  -0.000006  -0.000005
    21  C    0.000005  -0.000000  -0.000000  -0.000000  -0.006743   0.000517
    22  C    0.000011  -0.000005   0.000000   0.000000   0.019897  -0.002013
    23  H   -0.000010  -0.000000  -0.000000  -0.000000  -0.000531  -0.001097
    24  H    0.000006   0.000000   0.000000  -0.000000   0.000370  -0.000425
    25  C   -0.000258   0.000017   0.000001  -0.000000  -0.060440  -0.073706
[...]
     6  C(13)              0.00001       0.00860       0.00307       0.00287
     7  H(1)               0.00000       0.00422       0.00151       0.00141
     8  H(1)              -0.00000      -0.00081      -0.00029      -0.00027
     9  H(1)               0.00000       0.00374       0.00134       0.00125
    10  H(1)              -0.00000      -0.00314      -0.00112      -0.00105
    11  N(14)              0.00008       0.02467       0.00880       0.00823
    12  N(14)              0.00050       0.16195       0.05779       0.05402
    13  C(13)             -0.00011      -0.12319      -0.04396      -0.04109
    14  C(13)             -0.00000      -0.00555      -0.00198      -0.00185
    15  H(1)               0.00001       0.03858       0.01377       0.01287
    16  H(1)               0.00000       0.00607       0.00217       0.00203
    17  H(1)               0.00001       0.02255       0.00805       0.00752
    18  S(33)              0.55581     190.90643      68.12016      63.67953
    19  O(17)              0.04581     -27.76888      -9.90863      -9.26270
    20  O(17)              0.04833     -29.29925     -10.45470      -9.77318
    21  C(13)              0.07613      85.58559      30.53907      28.54828
    22  C(13)             -0.00454      -5.10361      -1.82109      -1.70238
    23  H(1)              -0.00254     -11.35566      -4.05198      -3.78784
    24  H(1)               0.00477      21.32825       7.61045       7.11434
    25  C(13)              0.00477       5.36394       1.91399       1.78922
    26  H(1)               0.00016       0.72291       0.25795       0.24114
    27  H(1)               0.00011       0.50820       0.18134       0.16952
    28  C(13)              0.00076       0.85491       0.30505       0.28517
    29  H(1)               0.00016       0.71228       0.25416       0.23759
    30  H(1)              -0.00002      -0.11130      -0.03971      -0.03712
    31  H(1)              -0.00001      -0.06456      -0.02304      -0.02154
    32  C(13)              0.00022       0.24274       0.08662       0.08097
    33  C(13)              0.00016       0.17743       0.06331       0.05918
    34  H(1)               0.00000       0.00773       0.00276       0.00258
    35  H(1)              -0.00000      -0.00525      -0.00187      -0.00175
    36  H(1)               0.00002       0.10183       0.03634       0.03397
    37  H(1)              -0.00000      -0.00406      -0.00145      -0.00136
    38  H(1)              -0.00000      -0.01123      -0.00401      -0.00375
 --------------------------------------------------------
       Center         ----  Spin Dipole Couplings  ----
                      3XX-RR        3YY-RR        3ZZ-RR
 --------------------------------------------------------
     1   Atom        0.000785     -0.000426     -0.000359
     2   Atom        0.001308     -0.000646     -0.000662
     3   Atom        0.001277     -0.000662     -0.000615
     4   Atom        0.000775     -0.000390     -0.000385
     5   Atom        0.000560     -0.000289     -0.000271
     6   Atom        0.000574     -0.000261     -0.000313
     7   Atom        0.000607     -0.000363     -0.000244
     8   Atom        0.000605     -0.000342     -0.000262
     9   Atom        0.000396     -0.000193     -0.000203
    10   Atom        0.000390     -0.000178     -0.000212
    11   Atom        0.001569     -0.000708     -0.000861
    12   Atom        0.002005     -0.001421     -0.000584
    13   Atom        0.002448     -0.000852     -0.001596
    14   Atom        0.000974     -0.000463     -0.000511
    15   Atom        0.000549     -0.000164     -0.000386
    16   Atom        0.000791     -0.000503     -0.000288
    17   Atom        0.000901     -0.000374     -0.000527
    18   Atom       -0.864061     -0.721973      1.586034
    19   Atom       -0.585666     -0.549906      1.135571
    20   Atom       -0.582139     -0.265822      0.847961
    21   Atom        0.070540     -0.056064     -0.014477
    22   Atom        0.001610      0.002608     -0.004218
    23   Atom        0.015607     -0.005151     -0.010457
    24   Atom       -0.002696     -0.011724      0.014419
    25   Atom        0.004577     -0.000040     -0.004538
    26   Atom        0.001486      0.001591     -0.003077
    27   Atom       -0.001638      0.006244     -0.004606
    28   Atom       -0.000730      0.002649     -0.001919
    29   Atom        0.000015      0.000193     -0.000208
    30   Atom        0.000012      0.000666     -0.000678
    31   Atom       -0.000282      0.001310     -0.001028
    32   Atom        0.000369      0.000294     -0.000663
    33   Atom       -0.000053      0.000488     -0.000436
    34   Atom        0.000517     -0.000013     -0.000504
    35   Atom        0.000173      0.000140     -0.000313
    36   Atom        0.000084      0.000143     -0.000228
    37   Atom        0.000026      0.000253     -0.000279
    38   Atom       -0.000067      0.000379     -0.000312
 --------------------------------------------------------
                        XY            XZ            YZ
 --------------------------------------------------------
     1   Atom        0.000212      0.000289      0.000056
     2   Atom       -0.000009      0.000367     -0.000077
     3   Atom       -0.000096     -0.000118      0.000017
     4   Atom       -0.000019     -0.000155     -0.000027
     5   Atom        0.000150     -0.000064      0.000012
     6   Atom        0.000134      0.000114      0.000005
     7   Atom        0.000198      0.000421      0.000080
     8   Atom       -0.000039     -0.000269      0.000007
     9   Atom        0.000102     -0.000067     -0.000010
    10   Atom        0.000162      0.000099      0.000025
    11   Atom       -0.000832     -0.000250     -0.000172
    12   Atom       -0.000138      0.000628      0.000009
    13   Atom       -0.001642      0.000410     -0.000269
    14   Atom       -0.000808     -0.000630      0.000261
    15   Atom       -0.000633     -0.000365      0.000202
    16   Atom       -0.000425     -0.000667      0.000185
    17   Atom       -0.001311     -0.001043      0.000640
    18   Atom        0.141702     -0.467320     -0.659818
    19   Atom        0.025028     -0.040855     -0.227808
    20   Atom        0.089208     -0.204972     -0.661581
    21   Atom       -0.084808      0.123471     -0.062070
    22   Atom       -0.007604      0.000435     -0.000158
    23   Atom        0.009529      0.006251     -0.002507
    24   Atom       -0.004716     -0.000035     -0.004238
    25   Atom       -0.007195      0.000864     -0.000655
    26   Atom       -0.006385     -0.002017      0.002719
    27   Atom       -0.003930      0.001281     -0.000721
    28   Atom       -0.002208     -0.000116      0.000646
    29   Atom       -0.002503      0.001764     -0.001641
    30   Atom       -0.001307     -0.000196      0.000390
    31   Atom       -0.000979      0.000155     -0.000329
    32   Atom       -0.001085      0.000320     -0.000293
    33   Atom       -0.000564      0.000034     -0.000017
    34   Atom       -0.000654      0.000078     -0.000060
    35   Atom       -0.000678      0.000338     -0.000302
    36   Atom       -0.000340      0.000065     -0.000056
    37   Atom       -0.000442     -0.000040      0.000071
    38   Atom       -0.000381      0.000055     -0.000104
 --------------------------------------------------------


 ---------------------------------------------------------------------------------
              Anisotropic Spin Dipole Couplings in Principal Axis System
 ---------------------------------------------------------------------------------

       Atom             a.u.   MegaHertz   Gauss  10(-4) cm-1        Axes

              Baa    -0.0005    -0.062    -0.022    -0.021 -0.1196  0.9734 -0.1954
     1 C(13)  Bbb    -0.0004    -0.057    -0.020    -0.019 -0.2552  0.1600  0.9535
              Bcc     0.0009     0.120     0.043     0.040  0.9595  0.1640  0.2293
 
              Baa    -0.0008    -0.104    -0.037    -0.035 -0.1474  0.5099  0.8475
     2 C(13)  Bbb    -0.0006    -0.081    -0.029    -0.027  0.1004  0.8602 -0.5000
              Bcc     0.0014     0.184     0.066     0.062  0.9840 -0.0114  0.1780
 
              Baa    -0.0007    -0.090    -0.032    -0.030  0.0341  0.9737 -0.2252
     3 C(13)  Bbb    -0.0006    -0.083    -0.030    -0.028  0.0719  0.2224  0.9723
              Bcc     0.0013     0.173     0.062     0.058  0.9968 -0.0493 -0.0625
 
              Baa    -0.0004    -0.057    -0.020    -0.019  0.1104  0.6166  0.7795
     4 C(13)  Bbb    -0.0004    -0.049    -0.018    -0.016 -0.0701  0.7872 -0.6128
              Bcc     0.0008     0.107     0.038     0.036  0.9914 -0.0130 -0.1302
 
              Baa    -0.0003    -0.044    -0.016    -0.015 -0.1809  0.8918 -0.4148
     5 C(13)  Bbb    -0.0003    -0.036    -0.013    -0.012 -0.0058  0.4208  0.9071
              Bcc     0.0006     0.079     0.028     0.026  0.9835  0.1665 -0.0709
 
              Baa    -0.0003    -0.044    -0.016    -0.015 -0.1546  0.2281  0.9613
     6 C(13)  Bbb    -0.0003    -0.037    -0.013    -0.012 -0.1178  0.9618 -0.2472
              Bcc     0.0006     0.082     0.029     0.027  0.9809  0.1514  0.1218
 
              Baa    -0.0004    -0.223    -0.079    -0.074 -0.3881  0.0525  0.9201
     7 H(1)   Bbb    -0.0004    -0.214    -0.076    -0.071 -0.1438  0.9827 -0.1167
              Bcc     0.0008     0.437     0.156     0.146  0.9103  0.1776  0.3738
 
              Baa    -0.0003    -0.185    -0.066    -0.062  0.1682  0.8669  0.4693
     8 H(1)   Bbb    -0.0003    -0.180    -0.064    -0.060  0.2197 -0.4971  0.8395
              Bcc     0.0007     0.364     0.130     0.122  0.9610 -0.0382 -0.2740
 
              Baa    -0.0002    -0.113    -0.040    -0.038  0.1897 -0.6418  0.7431
     9 H(1)   Bbb    -0.0002    -0.112    -0.040    -0.037 -0.0521  0.7492  0.6603
              Bcc     0.0004     0.225     0.080     0.075  0.9805  0.1639 -0.1087
 
              Baa    -0.0002    -0.122    -0.043    -0.041 -0.1827  0.0982  0.9782
    10 H(1)   Bbb    -0.0002    -0.118    -0.042    -0.039 -0.2322  0.9625 -0.1400
              Bcc     0.0004     0.240     0.085     0.080  0.9553  0.2528  0.1531
 
              Baa    -0.0012    -0.045    -0.016    -0.015  0.2782  0.7288  0.6256
    11 N(14)  Bbb    -0.0007    -0.026    -0.009    -0.009 -0.1406 -0.6134  0.7771
              Bcc     0.0019     0.071     0.025     0.024  0.9502 -0.3041 -0.0682
 
              Baa    -0.0014    -0.055    -0.020    -0.018  0.0487  0.9977 -0.0467
    12 N(14)  Bbb    -0.0007    -0.028    -0.010    -0.009 -0.2209  0.0563  0.9737
              Bcc     0.0022     0.083     0.030     0.028  0.9741 -0.0371  0.2231
 
              Baa    -0.0017    -0.228    -0.081    -0.076  0.1044  0.4807  0.8707
    13 C(13)  Bbb    -0.0015    -0.198    -0.071    -0.066  0.3803  0.7896 -0.4815
              Bcc     0.0032     0.426     0.152     0.142  0.9189 -0.3814  0.1004
 
              Baa    -0.0008    -0.111    -0.040    -0.037  0.4561  0.8691  0.1912
    14 C(13)  Bbb    -0.0007    -0.098    -0.035    -0.033  0.1978 -0.3085  0.9304
              Bcc     0.0016     0.209     0.075     0.070  0.8677 -0.3866 -0.3126
 
              Baa    -0.0005    -0.286    -0.102    -0.096  0.5540  0.7745  0.3055
    15 H(1)   Bbb    -0.0005    -0.269    -0.096    -0.090  0.0699 -0.4089  0.9099
              Bcc     0.0010     0.555     0.198     0.185  0.8296 -0.4827 -0.2806
 
              Baa    -0.0006    -0.339    -0.121    -0.113  0.4093  0.8490  0.3343
    16 H(1)   Bbb    -0.0006    -0.319    -0.114    -0.106  0.2654 -0.4613  0.8466
              Bcc     0.0012     0.658     0.235     0.219  0.8729 -0.2578 -0.4141
 
              Baa    -0.0012    -0.638    -0.228    -0.213  0.5527  0.8308  0.0661
    17 H(1)   Bbb    -0.0011    -0.568    -0.203    -0.189  0.3021 -0.2736  0.9132
              Bcc     0.0023     1.205     0.430     0.402  0.7767 -0.4847 -0.4022
 
              Baa    -0.9565   -39.217   -13.994   -13.081  0.9474 -0.3056  0.0948
    18 S(33)  Bbb    -0.8926   -36.596   -13.058   -12.207  0.2665  0.9177  0.2945
              Bcc     1.8491    75.813    27.052    25.288 -0.1770 -0.2538  0.9509
 
              Baa    -0.6032    43.644    15.573    14.558  0.7638 -0.6420 -0.0662
    19 O(17)  Bbb    -0.5638    40.793    14.556    13.607  0.6449  0.7553  0.1168
              Bcc     1.1669   -84.437   -30.129   -28.165 -0.0250 -0.1319  0.9910
 
              Baa    -0.6112    44.229    15.782    14.753  0.9814  0.0804  0.1743
    20 O(17)  Bbb    -0.5729    41.453    14.791    13.827 -0.1452  0.9048  0.4003
              Bcc     1.1841   -85.681   -30.573   -28.580 -0.1255 -0.4182  0.8996
 
              Baa    -0.1029   -13.809    -4.927    -4.606 -0.4694  0.2659  0.8420
    21 C(13)  Bbb    -0.0986   -13.229    -4.721    -4.413  0.4614  0.8869 -0.0229
              Bcc     0.2015    27.039     9.648     9.019  0.7528 -0.3778  0.5390
 
              Baa    -0.0055    -0.744    -0.265    -0.248  0.7237  0.6719 -0.1575
    22 C(13)  Bbb    -0.0042    -0.563    -0.201    -0.188  0.0950  0.1290  0.9871
              Bcc     0.0097     1.307     0.466     0.436 -0.6836  0.7293 -0.0296
 
              Baa    -0.0148    -7.875    -2.810    -2.627 -0.3271  0.5287  0.7832
    23 H(1)   Bbb    -0.0054    -2.864    -1.022    -0.955 -0.1757  0.7804 -0.6001
              Bcc     0.0201    10.739     3.832     3.582  0.9285  0.3339  0.1624
 
              Baa    -0.0143    -7.616    -2.718    -2.541  0.3741  0.9174  0.1360
    24 H(1)   Bbb    -0.0008    -0.450    -0.161    -0.150  0.9265 -0.3631 -0.0987
              Bcc     0.0151     8.066     2.878     2.691  0.0412 -0.1629  0.9858
 
              Baa    -0.0053    -0.710    -0.253    -0.237  0.5873  0.8088  0.0291
    25 C(13)  Bbb    -0.0046    -0.620    -0.221    -0.207 -0.0776  0.0205  0.9968
              Bcc     0.0099     1.329     0.474     0.443  0.8056 -0.5877  0.0748
 
              Baa    -0.0051    -2.698    -0.963    -0.900  0.5761  0.7152 -0.3957
    26 H(1)   Bbb    -0.0038    -2.032    -0.725    -0.678  0.4665  0.1097  0.8777
              Bcc     0.0089     4.730     1.688     1.578 -0.6711  0.6902  0.2705
 
              Baa    -0.0051    -2.746    -0.980    -0.916 -0.4304 -0.0916  0.8980
    27 H(1)   Bbb    -0.0028    -1.509    -0.539    -0.503  0.8153  0.3874  0.4303
              Bcc     0.0080     4.255     1.518     1.419 -0.3873  0.9174 -0.0920
 
              Baa    -0.0021    -0.282    -0.101    -0.094 -0.4432 -0.3198  0.8375
    28 C(13)  Bbb    -0.0017    -0.229    -0.082    -0.076  0.7827  0.3175  0.5354
              Bcc     0.0038     0.511     0.182     0.171 -0.4371  0.8927  0.1096
 
              Baa    -0.0024    -1.289    -0.460    -0.430  0.7535  0.6461 -0.1218
    29 H(1)   Bbb    -0.0016    -0.839    -0.299    -0.280 -0.2463  0.4492  0.8588
              Bcc     0.0040     2.128     0.759     0.710 -0.6096  0.6171 -0.4976
 
              Baa    -0.0010    -0.552    -0.197    -0.184  0.7274  0.6246 -0.2844
    30 H(1)   Bbb    -0.0007    -0.388    -0.139    -0.129  0.3297  0.0454  0.9430
              Bcc     0.0018     0.940     0.335     0.314 -0.6019  0.7796  0.1729
 
              Baa    -0.0011    -0.573    -0.205    -0.191 -0.0499  0.1164  0.9920
    31 H(1)   Bbb    -0.0007    -0.399    -0.142    -0.133  0.9032  0.4291 -0.0050
              Bcc     0.0018     0.972     0.347     0.324 -0.4262  0.8957 -0.1265
 
              Baa    -0.0008    -0.102    -0.037    -0.034 -0.6245 -0.4674  0.6257
    32 C(13)  Bbb    -0.0007    -0.099    -0.035    -0.033  0.3343  0.5641  0.7550
              Bcc     0.0015     0.202     0.072     0.067  0.7058 -0.6807  0.1961
 
              Baa    -0.0004    -0.060    -0.021    -0.020 -0.3912 -0.2197  0.8937
    33 C(13)  Bbb    -0.0004    -0.053    -0.019    -0.018  0.7504  0.4860  0.4480
              Bcc     0.0008     0.113     0.040     0.038 -0.5327  0.8459 -0.0253
 
              Baa    -0.0005    -0.273    -0.097    -0.091  0.0046  0.1251  0.9921
    34 H(1)   Bbb    -0.0005    -0.242    -0.086    -0.081  0.5617  0.8205 -0.1061
              Bcc     0.0010     0.514     0.183     0.172  0.8274 -0.5577  0.0665
 
              Baa    -0.0005    -0.282    -0.100    -0.094  0.7341  0.6109 -0.2965
    35 H(1)   Bbb    -0.0005    -0.247    -0.088    -0.083 -0.0055  0.4419  0.8970
              Bcc     0.0010     0.529     0.189     0.176  0.6790 -0.6569  0.3278
 
              Baa    -0.0002    -0.130    -0.046    -0.043 -0.4445 -0.2669  0.8551
    36 H(1)   Bbb    -0.0002    -0.118    -0.042    -0.039  0.5921  0.6288  0.5040
              Bcc     0.0005     0.248     0.089     0.083 -0.6722  0.7303 -0.1215
 
              Baa    -0.0003    -0.172    -0.061    -0.057  0.7288  0.6013 -0.3274
    37 H(1)   Bbb    -0.0003    -0.151    -0.054    -0.050  0.3125  0.1333  0.9405
              Bcc     0.0006     0.322     0.115     0.107 -0.6092  0.7878  0.0908
 
              Baa    -0.0003    -0.174    -0.062    -0.058  0.0126  0.1518  0.9883
    38 H(1)   Bbb    -0.0003    -0.152    -0.054    -0.051  0.8697  0.4860 -0.0857
              Bcc     0.0006     0.327     0.117     0.109 -0.4934  0.8607 -0.1259
 

 ---------------------------------------------------------------------------------

 Unable to Open any file for archive entry.
 1\1\GINC-CLUSTER\SP\UM062X\def2TZVP\C14H19N2O2S1(2)\KJIANG\21-Nov-2025
 \0\\# scrf=(solvent=n,n-dimethylformamide) def2tzvp m062x geom=allchec
 k\\Title Card Required\\0,2\C,0,-2.8606147707,-2.0827603405,-1.3984912
 578\C,0,-2.0380496149,-1.1160531595,-0.8113388057\C,0,-2.2498076353,-0
 .7306121565,0.5251174591\C,0,-3.2719591233,-1.2696561346,1.3077725794\
 C,0,-4.0766818039,-2.2261241345,0.7063239259\C,0,-3.8740283816,-2.6285
 799632,-0.6273539505\H,0,-2.6976718828,-2.3831977463,-2.4280510483\H,0
 ,-3.4420673714,-0.958915429,2.3338883529\H,0,-4.8843601749,-2.67254064
 92,1.2775168019\H,0,-4.52905401,-3.3800387417,-1.0560772924\N,0,-1.272
 0274867,0.2124728525,0.7898952627\N,0,-0.9728705493,-0.4130187961,-1.3
 451681875\C,0,-0.5547154317,0.3668112639,-0.3806502471\C,0,-1.14218595
 55,0.9286706865,2.0422921905\H,0,-1.6558314589,1.8957236535,2.00901622
 87\H,0,-1.5816286312,0.3204384327,2.8349464282\H,0,-0.091299058,1.0903
 719501,2.2849169282\S,0,3.7715067104,-1.3067918668,0.3293159615\O,0,4.
 0866534313,-2.5607745277,-0.3760655566\O,0,4.7396316892,-0.1960333792,
 0.3977058821\C,0,2.2695229093,-0.6323545768,-0.475822842\C,0,1.8877030
 217,0.7119723904,0.1226868475\H,0,1.4989465692,-1.3990472426,-0.366314
 9481\H,0,2.5349499569,-0.5595440684,-1.5357390115\C,0,0.6252867024,1.2
 854754023,-0.5470179415\H,0,1.7315655247,0.6073827553,1.2040058681\H,0
 ,2.7182829677,1.4124273672,-0.0095290608\C,0,0.3698462583,2.7396963779
 ,-0.1198247712\H,0,0.7947750588,1.2846862918,-1.6306142395\H,0,0.37996
 49884,2.8320209852,0.9737305271\H,0,1.2151222631,3.3429284815,-0.47519
 12045\C,0,-0.9323260727,3.3167361948,-0.6732558625\C,0,-1.1174937105,4
 .783330502,-0.2935109865\H,0,-1.7830991336,2.7282099943,-0.3055895809\
 H,0,-0.9395123246,3.2048547645,-1.7645391473\H,0,-2.0538587215,5.18331
 92902,-0.6913339568\H,0,-1.1356441025,4.9061433962,0.7951144373\H,0,-0
 .2975366463,5.39598188,-0.6821487821\\Version=ES64L-G16RevC.02\State=2
 -A\HF=-1203.0154655\S2=0.75695\S2-1=0.\S2A=0.750032\RMSD=8.544e-09\Dip
 ole=-1.7383414,1.7814355,1.7043533\Quadrupole=-15.6653255,4.493185,11.
 1721405,8.2991525,-4.7003156,-0.8837495\PG=C01 [X(C14H19N2O2S1)]\\@
 The archive entry for this job was punched.


 JUST WHEN YOU THINK YOU'VE GOT THE WORLD ON A STRING,
 YOU FIND OUT IT'S YOUR LEASH.
 Job cpu time:       0 days  2 hours 39 minutes 59.0 seconds.
 Elapsed time:       0 days  0 hours  1 minutes 58.8 seconds.
 File lengths (MBytes):  RWF=    596 Int=      0 D2E=      0 Chk=     45 Scr=      1
 Normal termination of Gaussian 16 at Fri Nov 21 18:21:08 2025.
