 Entering Gaussian System, Link 0=g16
 Initial command:
 /public/software/g16/l1.exe "/tmp/Gau-9251.inp" -scrdir="/tmp/"
 Entering Link 1 = /public/software/g16/l1.exe PID=      9252.
  
 Copyright (c) 1988-2021, Gaussian, Inc.  All Rights Reserved.
  
 This is part of the Gaussian(R) 16 program.  It is based on
 the Gaussian(R) 09 system (copyright 2009, Gaussian, Inc.),
 the Gaussian(R) 03 system (copyright 2003, Gaussian, Inc.),
 the Gaussian(R) 98 system (copyright 1998, Gaussian, Inc.),
 the Gaussian(R) 94 system (copyright 1995, Gaussian, Inc.),
 the Gaussian 92(TM) system (copyright 1992, Gaussian, Inc.),
 the Gaussian 90(TM) system (copyright 1990, Gaussian, Inc.),
 the Gaussian 88(TM) system (copyright 1988, Gaussian, Inc.),
 the Gaussian 86(TM) system (copyright 1986, Carnegie Mellon
 University), and the Gaussian 82(TM) system (copyright 1983,
 Carnegie Mellon University). Gaussian is a federally registered
 trademark of Gaussian, Inc.
  
 This software contains proprietary and confidential information,
 including trade secrets, belonging to Gaussian, Inc.
  
 This software is provided under written license and may be
 used, copied, transmitted, or stored only in accord with that
 written license.
  
 The following legend is applicable only to US Government
 contracts under FAR:
  
                    RESTRICTED RIGHTS LEGEND
  
 Use, reproduction and disclosure by the US Government is
 subject to restrictions as set forth in subparagraphs (a)
 and (c) of the Commercial Computer Software - Restricted
 Rights clause in FAR 52.227-19.
  
 Gaussian, Inc.
 340 Quinnipiac St., Bldg. 40, Wallingford CT 06492
  
  
 ---------------------------------------------------------------
 Warning -- This program may not be used in any manner that
 competes with the business of Gaussian, Inc. or will provide
 assistance to any competitor of Gaussian, Inc.  The licensee
 of this program is prohibited from giving any competitor of
 Gaussian, Inc. access to this program.  By using this program,
 the user acknowledges that Gaussian, Inc. is engaged in the
 business of creating and licensing software in the field of
 computational chemistry and represents and warrants to the
 licensee that it is not a competitor of Gaussian, Inc. and that
 it will not use this program in any manner prohibited above.
 ---------------------------------------------------------------
  

 Cite this work as:
 Gaussian 16, Revision C.02,
 M. J. Frisch, G. W. Trucks, H. B. Schlegel, G. E. Scuseria, 
 M. A. Robb, J. R. Cheeseman, G. Scalmani, V. Barone, 
 G. A. Petersson, H. Nakatsuji, X. Li, M. Caricato, A. V. Marenich, 
 J. Bloino, B. G. Janesko, R. Gomperts, B. Mennucci, H. P. Hratchian, 
 J. V. Ortiz, A. F. Izmaylov, J. L. Sonnenberg, D. Williams-Young, 
 F. Ding, F. Lipparini, F. Egidi, J. Goings, B. Peng, A. Petrone, 
 T. Henderson, D. Ranasinghe, V. G. Zakrzewski, J. Gao, N. Rega, 
 G. Zheng, W. Liang, M. Hada, M. Ehara, K. Toyota, R. Fukuda, 
 J. Hasegawa, M. Ishida, T. Nakajima, Y. Honda, O. Kitao, H. Nakai, 
 T. Vreven, K. Throssell, J. A. Montgomery, Jr., J. E. Peralta, 
 F. Ogliaro, M. J. Bearpark, J. J. Heyd, E. N. Brothers, K. N. Kudin, 
 V. N. Staroverov, T. A. Keith, R. Kobayashi, J. Normand, 
 K. Raghavachari, A. P. Rendell, J. C. Burant, S. S. Iyengar, 
 J. Tomasi, M. Cossi, J. M. Millam, M. Klene, C. Adamo, R. Cammi, 
 J. W. Ochterski, R. L. Martin, K. Morokuma, O. Farkas, 
 J. B. Foresman, and D. J. Fox, Gaussian, Inc., Wallingford CT, 2019.
 
 ******************************************
 Gaussian 16:  ES64L-G16RevC.02  7-Dec-2021
                21-Nov-2025 
 ******************************************
 %nprocshared=96
 Will use up to   96 processors via shared memory.
 %mem=50GB
 %chk=IM4.chk
 -------------------------------------------------------------------
 # scrf=(solvent=n,n-dimethylformamide) def2tzvp m062x geom=allcheck
 -------------------------------------------------------------------
 1/29=7,38=1,172=1/1;
 2/12=2,40=1/2;
 3/5=44,7=101,11=2,14=-4,25=1,30=1,70=2201,72=148,74=-55/1,2,3;
 4//1;
 5/5=2,38=5,53=148/2;
 6/7=2,8=2,9=2,10=2,28=1/1;
 99/5=1,9=1/99;
 Structure from the checkpoint file:  "IM4.chk"
 -------------------
 Title Card Required
 -------------------
 Charge =  0 Multiplicity = 2
 Redundant internal coordinates found in file.  (old form).
 C,0,4.7990148596,-2.4381235424,0.5286247618
 C,0,4.0762061071,-1.2380623243,0.5546336492
 C,0,3.1825959564,-0.9753743476,1.6132245564
 C,0,2.9783863321,-1.8737624165,2.6659893133
 C,0,3.7039409783,-3.0526534975,2.6186290277
 C,0,4.6010811069,-3.3321124467,1.5657124041
 H,0,5.4859732864,-2.6423773079,-0.2855670677
 H,0,2.2879793635,-1.6617941015,3.4764603748
 H,0,3.5795925046,-3.7823511772,3.412361579
 H,0,5.1447108256,-4.2710357711,1.575091102
 N,0,4.0589575748,-0.1969233126,-0.3526026258
 N,0,2.6342050001,0.2583730137,1.337962632
 C,0,1.6976242965,0.9665321634,2.2024938631
 H,0,1.7316086611,2.0307232895,1.9713962695
 H,0,0.6780744776,0.5949367867,2.0666538674
 H,0,2.0132122542,0.8228691931,3.2384374917
 C,0,3.205858441,0.6467226896,0.1507345932
 S,0,2.7461741991,2.1711841328,-0.6789412332
 O,0,3.5201178754,2.2678532524,-1.9044318338
 O,0,2.806079163,3.2335254897,0.3293387551
 C,0,1.0159558578,1.8766960085,-1.0641563299
 C,0,0.2838116135,3.2028058536,-1.3133115599
 H,0,0.5715217294,1.3473963804,-0.2165317796
 H,0,1.0022762484,1.2305537053,-1.9435889123
 C,0,-1.1886941077,2.976721851,-1.4263993952
 H,0,0.5029012136,3.8935356038,-0.4923189193
 H,0,0.6763314607,3.6523946611,-2.2341961354
 C,0,-2.1024430501,3.3571140261,-0.3311943719
 H,0,-1.5717287008,2.3886510235,-2.2554929879
 H,0,-3.083946612,3.7098060335,-0.6696904816
 H,0,-1.6728107842,4.1160465041,0.3312221394
 S,0,-2.4949414465,1.992567543,0.8336580638
 C,0,-3.8198811188,1.0910604938,0.0213983836
 O,0,-1.3334734665,1.0919337962,0.9172908001
 O,0,-3.0205553722,2.5857902605,2.0624300078
 C,0,-3.9860122789,-0.2914633512,0.6723069779
 H,0,-3.5431485012,1.0041990704,-1.0357493001
 H,0,-4.706602417,1.7210491492,0.1225133026
 H,0,-5.0241396894,-0.4095907789,0.9923421475
 C,0,-3.6312945375,-1.4362582717,-0.2962374898
 H,0,-3.3753720384,-0.3664959734,1.5800553375
 C,0,-2.2991370356,-1.2445285779,-0.9725139691
 C,0,-3.7955671659,-2.8178986416,0.3592161408
 H,0,-4.3397216062,-1.3768686942,-1.1320119982
 N,0,-2.2112530243,-0.7500927978,-2.1862555627
 N,0,-1.080639997,-1.5994213215,-0.4441712293
 C,0,-0.7630510579,-2.0012694815,0.9120155859
 H,0,-1.3829904517,-1.4446686963,1.6171014362
 H,0,-0.8950038718,-3.0770687608,1.0572659753
 H,0,0.2819653872,-1.7446903847,1.1071438697
 H,0,-3.3046617488,-3.5718120129,-0.2699019537
 H,0,-3.2840658317,-2.839250356,1.330302498
 C,0,-5.2568065127,-3.2223250478,0.5626965541
 C,0,-0.1378647953,-1.3176535111,-1.412913237
 C,0,-0.8632860092,-0.7811405878,-2.4936095118
 H,0,-5.7613799337,-2.498344228,1.2136505183
 H,0,-5.7756622564,-3.1885696452,-0.4034435818
 C,0,-5.3833581512,-4.6179499199,1.1685547561
 C,0,1.2472099447,-1.4844386423,-1.447717575
 C,0,-0.1934781768,-0.3961666013,-3.661069684
 H,0,-4.8917899751,-4.6660864299,2.1458648132
 H,0,-6.4307068973,-4.8996891814,1.3059511032
 H,0,-4.9149127237,-5.367536739,0.5225315707
 C,0,1.895873641,-1.088735534,-2.6102832671
 H,0,1.8018085128,-1.9094879969,-0.6148892458
 C,0,1.1846542929,-0.5560685848,-3.7040382806
 H,0,-0.7491773639,0.0086717118,-4.5010525269
 H,0,2.9767185859,-1.1690324339,-2.6614156706
 H,0,1.7333099559,-0.2577822576,-4.5913415046
 Recover connectivity data from disk.
                           ----------------------------
                           !    Current Parameters    !
                           ! (Angstroms and Degrees)  !
 --------------------------                            --------------------------
 ! Name  Definition              Value                                          !
 --------------------------------------------------------------------------------
 ! R1    R(1,2)                  1.4012                                         !
 ! R2    R(1,6)                  1.3835                                         !
 ! R3    R(1,7)                  1.0847                                         !
 ! R4    R(2,3)                  1.41                                           !
 ! R5    R(2,11)                 1.3811                                         !
 ! R6    R(3,4)                  1.399                                          !
 ! R7    R(3,12)                 1.3779                                         !
 ! R8    R(4,5)                  1.3851                                         !
 ! R9    R(4,8)                  1.0856                                         !
 ! R10   R(5,6)                  1.4112                                         !
 ! R11   R(5,9)                  1.0853                                         !
 ! R12   R(6,10)                 1.085                                          !
 ! R13   R(11,17)                1.3011                                         !
 ! R14   R(12,13)                1.4581                                         !
 ! R15   R(12,17)                1.3737                                         !
 ! R16   R(13,14)                1.0895                                         !
 ! R17   R(13,15)                1.0936                                         !
 ! R18   R(13,16)                1.0924                                         !
 ! R19   R(17,18)                1.7955                                         !
 ! R20   R(18,19)                1.4526                                         !
 ! R21   R(18,20)                1.4659                                         !
 ! R22   R(18,21)                1.7969                                         !
 ! R23   R(21,22)                1.5351                                         !
 ! R24   R(21,23)                1.0937                                         !
 ! R25   R(21,24)                1.0914                                         !
 ! R26   R(22,25)                1.494                                          !
 ! R27   R(22,26)                1.0951                                         !
 ! R28   R(22,27)                1.0974                                         !
 ! R29   R(25,28)                1.4762                                         !
 ! R30   R(25,29)                1.0862                                         !
 ! R31   R(28,30)                1.0965                                         !
 ! R32   R(28,31)                1.0952                                         !
 ! R33   R(28,32)                1.8366                                         !
 ! R34   R(32,33)                1.7966                                         !
 ! R35   R(32,34)                1.4721                                         !
 ! R36   R(32,35)                1.4622                                         !
 ! R37   R(33,36)                1.5371                                         !
 ! R38   R(33,37)                1.0962                                         !
 ! R39   R(33,38)                1.0924                                         !
 ! R40   R(36,39)                1.0927                                         !
 ! R41   R(36,40)                1.5409                                         !
 ! R42   R(36,41)                1.0966                                         !
 ! R43   R(40,42)                1.5062                                         !
 ! R44   R(40,43)                1.538                                          !
 ! R45   R(40,44)                1.0972                                         !
 ! R46   R(42,45)                1.3135                                         !
 ! R47   R(42,46)                1.3747                                         !
 ! R48   R(43,51)                1.0978                                         !
 ! R49   R(43,52)                1.0978                                         !
 ! R50   R(43,53)                1.5298                                         !
 ! R51   R(45,55)                1.3829                                         !
 ! R52   R(46,47)                1.4497                                         !
 ! R53   R(46,54)                1.3808                                         !
 ! R54   R(47,48)                1.0915                                         !
 ! R55   R(47,49)                1.0936                                         !
 ! R56   R(47,50)                1.0936                                         !
 ! R57   R(53,56)                1.0966                                         !
 ! R58   R(53,57)                1.0972                                         !
 ! R59   R(53,58)                1.5267                                         !
 ! R60   R(54,55)                1.4078                                         !
 ! R61   R(54,59)                1.3955                                         !
 ! R62   R(55,60)                1.3999                                         !
 ! R63   R(58,61)                1.095                                          !
 ! R64   R(58,62)                1.0932                                         !
 ! R65   R(58,63)                1.0948                                         !
 ! R66   R(59,64)                1.3889                                         !
 ! R67   R(59,65)                1.0871                                         !
 ! R68   R(60,66)                1.388                                          !
 ! R69   R(60,67)                1.0855                                         !
 ! R70   R(64,66)                1.4092                                         !
 ! R71   R(64,68)                1.085                                          !
 ! R72   R(66,69)                1.085                                          !
 ! A1    A(2,1,6)              117.7576                                         !
 ! A2    A(2,1,7)              120.1272                                         !
 ! A3    A(6,1,7)              122.1152                                         !
 ! A4    A(1,2,3)              120.0283                                         !
 ! A5    A(1,2,11)             129.7854                                         !
 ! A6    A(3,2,11)             110.171                                          !
 ! A7    A(2,3,4)              122.5369                                         !
 ! A8    A(2,3,12)             105.6082                                         !
 ! A9    A(4,3,12)             131.8534                                         !
 ! A10   A(3,4,5)              116.3839                                         !
 ! A11   A(3,4,8)              121.9563                                         !
 ! A12   A(5,4,8)              121.6597                                         !
 ! A13   A(4,5,6)              121.8073                                         !
 ! A14   A(4,5,9)              119.158                                          !
 ! A15   A(6,5,9)              119.0347                                         !
 ! A16   A(1,6,5)              121.4859                                         !
 ! A17   A(1,6,10)             119.6039                                         !
 ! A18   A(5,6,10)             118.9102                                         !
 ! A19   A(2,11,17)            104.0562                                         !
 ! A20   A(3,12,13)            124.8932                                         !
 ! A21   A(3,12,17)            105.0791                                         !
 ! A22   A(13,12,17)           129.9721                                         !
 ! A23   A(12,13,14)           109.1826                                         !
 ! A24   A(12,13,15)           111.1094                                         !
 ! A25   A(12,13,16)           108.2295                                         !
 ! A26   A(14,13,15)           109.5491                                         !
 ! A27   A(14,13,16)           108.6979                                         !
 ! A28   A(15,13,16)           110.0245                                         !
 ! A29   A(11,17,12)           115.0798                                         !
 ! A30   A(11,17,18)           122.6597                                         !
 ! A31   A(12,17,18)           122.1984                                         !
 ! A32   A(17,18,19)           108.0554                                         !
 ! A33   A(17,18,20)           106.6797                                         !
 ! A34   A(17,18,21)           101.9139                                         !
 ! A35   A(19,18,20)           120.6824                                         !
 ! A36   A(19,18,21)           110.0639                                         !
 ! A37   A(20,18,21)           107.7931                                         !
 ! A38   A(18,21,22)           110.6372                                         !
 ! A39   A(18,21,23)           107.7254                                         !
 ! A40   A(18,21,24)           106.3705                                         !
 ! A41   A(22,21,23)           110.4899                                         !
 ! A42   A(22,21,24)           112.0038                                         !
 ! A43   A(23,21,24)           109.4445                                         !
 ! A44   A(21,22,25)           110.5859                                         !
 ! A45   A(21,22,26)           109.1342                                         !
 ! A46   A(21,22,27)           108.6336                                         !
 ! A47   A(25,22,26)           110.4499                                         !
 ! A48   A(25,22,27)           110.5491                                         !
 ! A49   A(26,22,27)           107.4073                                         !
 ! A50   A(22,25,28)           120.9921                                         !
 ! A51   A(22,25,29)           119.1589                                         !
 ! A52   A(28,25,29)           119.1772                                         !
 ! A53   A(25,28,30)           114.0747                                         !
 ! A54   A(25,28,31)           112.6127                                         !
 ! A55   A(25,28,32)           114.2927                                         !
 ! A56   A(30,28,31)           108.3597                                         !
 ! A57   A(30,28,32)           104.0922                                         !
 ! A58   A(31,28,32)           102.4208                                         !
 ! A59   A(28,32,33)           104.1032                                         !
 ! A60   A(28,32,34)           108.7824                                         !
 ! A61   A(28,32,35)           107.9623                                         !
 ! A62   A(33,32,34)           107.4897                                         !
 ! A63   A(33,32,35)           108.5664                                         !
 ! A64   A(34,32,35)           118.9518                                         !
 ! A65   A(32,33,36)           109.8507                                         !
 ! A66   A(32,33,37)           106.8328                                         !
 ! A67   A(32,33,38)           105.5083                                         !
 ! A68   A(36,33,37)           111.3701                                         !
 ! A69   A(36,33,38)           113.0648                                         !
 ! A70   A(37,33,38)           109.8687                                         !
 ! A71   A(33,36,39)           108.901                                          !
 ! A72   A(33,36,40)           112.1584                                         !
 ! A73   A(33,36,41)           110.6035                                         !
 ! A74   A(39,36,40)           108.8121                                         !
 ! A75   A(39,36,41)           106.2117                                         !
 ! A76   A(40,36,41)           109.9551                                         !
 ! A77   A(36,40,42)           113.0312                                         !
 ! A78   A(36,40,43)           112.0202                                         !
 ! A79   A(36,40,44)           106.8539                                         !
 ! A80   A(42,40,43)           113.5876                                         !
 ! A81   A(42,40,44)           102.835                                          !
 ! A82   A(43,40,44)           107.7147                                         !
 ! A83   A(40,42,45)           121.464                                          !
 ! A84   A(40,42,46)           125.3456                                         !
 ! A85   A(45,42,46)           113.1416                                         !
 ! A86   A(40,43,51)           108.9617                                         !
 ! A87   A(40,43,52)           110.1629                                         !
 ! A88   A(40,43,53)           113.3407                                         !
 ! A89   A(51,43,52)           106.5722                                         !
 ! A90   A(51,43,53)           108.7725                                         !
 ! A91   A(52,43,53)           108.8001                                         !
 ! A92   A(42,45,55)           105.1966                                         !
 ! A93   A(42,46,47)           128.703                                          !
 ! A94   A(42,46,54)           106.4312                                         !
 ! A95   A(47,46,54)           124.2849                                         !
 ! A96   A(46,47,48)           109.7884                                         !
 ! A97   A(46,47,49)           111.7477                                         !
 ! A98   A(46,47,50)           108.1331                                         !
 ! A99   A(48,47,49)           110.3248                                         !
 ! A100  A(48,47,50)           107.9296                                         !
 ! A101  A(49,47,50)           108.809                                          !
 ! A102  A(43,53,56)           110.1171                                         !
 ! A103  A(43,53,57)           109.0539                                         !
 ! A104  A(43,53,58)           111.94                                           !
 ! A105  A(56,53,57)           106.548                                          !
 ! A106  A(56,53,58)           109.2576                                         !
 ! A107  A(57,53,58)           109.7777                                         !
 ! A108  A(46,54,55)           105.3372                                         !
 ! A109  A(46,54,59)           132.126                                          !
 ! A110  A(55,54,59)           122.5355                                         !
 ! A111  A(45,55,54)           109.8893                                         !
 ! A112  A(45,55,60)           130.206                                          !
 ! A113  A(54,55,60)           119.8956                                         !
 ! A114  A(53,58,61)           110.9253                                         !
 ! A115  A(53,58,62)           111.3993                                         !
 ! A116  A(53,58,63)           110.8697                                         !
 ! A117  A(61,58,62)           107.8524                                         !
 ! A118  A(61,58,63)           107.7256                                         !
 ! A119  A(62,58,63)           107.9158                                         !
 ! A120  A(54,59,64)           116.7682                                         !
 ! A121  A(54,59,65)           122.2731                                         !
 ! A122  A(64,59,65)           120.957                                          !
 ! A123  A(55,60,66)           117.9809                                         !
 ! A124  A(55,60,67)           120.1956                                         !
 ! A125  A(66,60,67)           121.8227                                         !
 ! A126  A(59,64,66)           121.4442                                         !
 ! A127  A(59,64,68)           118.9216                                         !
 ! A128  A(66,64,68)           119.6134                                         !
 ! A129  A(60,66,64)           121.3731                                         !
 ! A130  A(60,66,69)           119.7153                                         !
 ! A131  A(64,66,69)           118.9088                                         !
 ! D1    D(6,1,2,3)             -0.0515                                         !
 ! D2    D(6,1,2,11)          -178.473                                          !
 ! D3    D(7,1,2,3)            179.9259                                         !
 ! D4    D(7,1,2,11)             1.5044                                         !
 ! D5    D(2,1,6,5)             -0.0309                                         !
 ! D6    D(2,1,6,10)           179.9474                                         !
 ! D7    D(7,1,6,5)            179.9921                                         !
 ! D8    D(7,1,6,10)            -0.0295                                         !
 ! D9    D(1,2,3,4)              0.1284                                         !
 ! D10   D(1,2,3,12)          -179.4826                                         !
 ! D11   D(11,2,3,4)           178.8363                                         !
 ! D12   D(11,2,3,12)           -0.7747                                         !
 ! D13   D(1,2,11,17)          179.0862                                         !
 ! D14   D(3,2,11,17)            0.5421                                         !
 ! D15   D(2,3,4,5)             -0.1138                                         !
 ! D16   D(2,3,4,8)            179.9928                                         !
 ! D17   D(12,3,4,5)           179.3832                                         !
 ! D18   D(12,3,4,8)            -0.5102                                         !
 ! D19   D(2,3,12,13)         -176.8504                                         !
 ! D20   D(2,3,12,17)            0.6689                                         !
 ! D21   D(4,3,12,13)            3.5898                                         !
 ! D22   D(4,3,12,17)         -178.8909                                         !
 ! D23   D(3,4,5,6)              0.0288                                         !
 ! D24   D(3,4,5,9)           -179.9488                                         !
 ! D25   D(8,4,5,6)            179.9226                                         !
 ! D26   D(8,4,5,9)             -0.055                                          !
 ! D27   D(4,5,6,1)              0.0431                                         !
 ! D28   D(4,5,6,10)          -179.9354                                         !
 ! D29   D(9,5,6,1)           -179.9793                                         !
 ! D30   D(9,5,6,10)             0.0422                                         !
 ! D31   D(2,11,17,12)          -0.1013                                         !
 ! D32   D(2,11,17,18)        -177.2925                                         !
 ! D33   D(3,12,13,14)         157.6635                                         !
 ! D34   D(3,12,13,15)         -81.4006                                         !
 ! D35   D(3,12,13,16)          39.5031                                         !
 ! D36   D(17,12,13,14)        -19.2103                                         !
 ! D37   D(17,12,13,15)        101.7255                                         !
 ! D38   D(17,12,13,16)       -137.3707                                         !
 ! D39   D(3,12,17,11)          -0.3769                                         !
 ! D40   D(3,12,17,18)         176.8287                                         !
 ! D41   D(13,12,17,11)        176.9679                                         !
 ! D42   D(13,12,17,18)         -5.8265                                         !
 ! D43   D(11,17,18,19)         -2.2758                                         !
 ! D44   D(11,17,18,20)       -133.42                                           !
 ! D45   D(11,17,18,21)        113.6725                                         !
 ! D46   D(12,17,18,19)       -179.2694                                         !
 ! D47   D(12,17,18,20)         49.5864                                         !
 ! D48   D(12,17,18,21)        -63.3211                                         !
 ! D49   D(17,18,21,22)        159.5197                                         !
 ! D50   D(17,18,21,23)         38.6515                                         !
 ! D51   D(17,18,21,24)        -78.616                                          !
 ! D52   D(19,18,21,22)        -86.0061                                         !
 ! D53   D(19,18,21,23)        153.1258                                         !
 ! D54   D(19,18,21,24)         35.8583                                         !
 ! D55   D(20,18,21,22)         47.4465                                         !
 ! D56   D(20,18,21,23)        -73.4216                                         !
 ! D57   D(20,18,21,24)        169.3109                                         !
 ! D58   D(18,21,22,25)       -171.3552                                         !
 ! D59   D(18,21,22,26)        -49.663                                          !
 ! D60   D(18,21,22,27)         67.1553                                         !
 ! D61   D(23,21,22,25)        -52.1433                                         !
 ! D62   D(23,21,22,26)         69.5489                                         !
 ! D63   D(23,21,22,27)       -173.6328                                         !
 ! D64   D(24,21,22,25)         70.1533                                         !
 ! D65   D(24,21,22,26)       -168.1544                                         !
 ! D66   D(24,21,22,27)        -51.3362                                         !
 ! D67   D(21,22,25,28)        105.6398                                         !
 ! D68   D(21,22,25,29)        -64.8893                                         !
 ! D69   D(26,22,25,28)        -15.2739                                         !
 ! D70   D(26,22,25,29)        174.1971                                         !
 ! D71   D(27,22,25,28)       -134.0091                                         !
 ! D72   D(27,22,25,29)         55.4619                                         !
 ! D73   D(22,25,28,30)        145.7384                                         !
 ! D74   D(22,25,28,31)         21.6952                                         !
 ! D75   D(22,25,28,32)        -94.6411                                         !
 ! D76   D(29,25,28,30)        -43.7343                                         !
 ! D77   D(29,25,28,31)       -167.7774                                         !
 ! D78   D(29,25,28,32)         75.8863                                         !
 ! D79   D(25,28,32,33)        -82.9507                                         !
 ! D80   D(25,28,32,34)         31.4269                                         !
 ! D81   D(25,28,32,35)        161.7992                                         !
 ! D82   D(30,28,32,33)         42.1316                                         !
 ! D83   D(30,28,32,34)        156.5092                                         !
 ! D84   D(30,28,32,35)        -73.1184                                         !
 ! D85   D(31,28,32,33)        154.9511                                         !
 ! D86   D(31,28,32,34)        -90.6714                                         !
 ! D87   D(31,28,32,35)         39.701                                          !
 ! D88   D(28,32,33,36)        164.0757                                         !
 ! D89   D(28,32,33,37)         43.1466                                         !
 ! D90   D(28,32,33,38)        -73.7541                                         !
 ! D91   D(34,32,33,36)         48.7831                                         !
 ! D92   D(34,32,33,37)        -72.1459                                         !
 ! D93   D(34,32,33,38)        170.9533                                         !
 ! D94   D(35,32,33,36)        -81.1011                                         !
 ! D95   D(35,32,33,37)        157.9698                                         !
 ! D96   D(35,32,33,38)         41.0691                                         !
 ! D97   D(32,33,36,39)        125.1593                                         !
 ! D98   D(32,33,36,40)       -114.3457                                         !
 ! D99   D(32,33,36,41)          8.8009                                         !
 ! D100  D(37,33,36,39)       -116.685                                          !
 ! D101  D(37,33,36,40)          3.81                                           !
 ! D102  D(37,33,36,41)        126.9566                                         !
 ! D103  D(38,33,36,39)          7.5983                                         !
 ! D104  D(38,33,36,40)        128.0933                                         !
 ! D105  D(38,33,36,41)       -108.7601                                         !
 ! D106  D(33,36,40,42)         50.0081                                         !
 ! D107  D(33,36,40,43)        179.8712                                         !
 ! D108  D(33,36,40,44)        -62.3879                                         !
 ! D109  D(39,36,40,42)        170.5546                                         !
 ! D110  D(39,36,40,43)        -59.5823                                         !
 ! D111  D(39,36,40,44)         58.1586                                         !
 ! D112  D(41,36,40,42)        -73.5028                                         !
 ! D113  D(41,36,40,43)         56.3603                                         !
 ! D114  D(41,36,40,44)        174.1012                                         !
 ! D115  D(36,40,42,45)        -98.2279                                         !
 ! D116  D(36,40,42,46)         84.4907                                         !
 ! D117  D(43,40,42,45)        132.7095                                         !
 ! D118  D(43,40,42,46)        -44.5719                                         !
 ! D119  D(44,40,42,45)         16.6052                                         !
 ! D120  D(44,40,42,46)       -160.6763                                         !
 ! D121  D(36,40,43,51)       -166.221                                          !
 ! D122  D(36,40,43,52)        -49.6416                                         !
 ! D123  D(36,40,43,53)         72.523                                          !
 ! D124  D(42,40,43,51)        -36.6464                                         !
 ! D125  D(42,40,43,52)         79.933                                          !
 ! D126  D(42,40,43,53)       -157.9024                                         !
 ! D127  D(44,40,43,51)         76.553                                          !
 ! D128  D(44,40,43,52)       -166.8675                                         !
 ! D129  D(44,40,43,53)        -44.7029                                         !
 ! D130  D(40,42,45,55)       -177.2366                                         !
 ! D131  D(46,42,45,55)          0.352                                          !
 ! D132  D(40,42,46,47)        -11.7183                                         !
 ! D133  D(40,42,46,54)        176.8469                                         !
 ! D134  D(45,42,46,47)        170.8034                                         !
 ! D135  D(45,42,46,54)         -0.6314                                         !
 ! D136  D(40,43,53,56)        -60.2948                                         !
 ! D137  D(40,43,53,57)         56.2831                                         !
 ! D138  D(40,43,53,58)        177.9553                                         !
 ! D139  D(51,43,53,56)        178.343                                          !
 ! D140  D(51,43,53,57)        -65.0792                                         !
 ! D141  D(51,43,53,58)         56.593                                          !
 ! D142  D(52,43,53,56)         62.6254                                         !
 ! D143  D(52,43,53,57)        179.2032                                         !
 ! D144  D(52,43,53,58)        -59.1246                                         !
 ! D145  D(42,45,55,54)          0.0616                                         !
 ! D146  D(42,45,55,60)        178.9362                                         !
 ! D147  D(42,46,47,48)        -35.4068                                         !
 ! D148  D(42,46,47,49)         87.3418                                         !
 ! D149  D(42,46,47,50)       -152.9291                                         !
 ! D150  D(54,46,47,48)        134.6371                                         !
 ! D151  D(54,46,47,49)       -102.6143                                         !
 ! D152  D(54,46,47,50)         17.1149                                         !
 ! D153  D(42,46,54,55)          0.6146                                         !
 ! D154  D(42,46,54,59)       -178.9797                                         !
 ! D155  D(47,46,54,55)       -171.2987                                         !
 ! D156  D(47,46,54,59)          9.1069                                         !
 ! D157  D(43,53,58,61)         60.0986                                         !
 ! D158  D(43,53,58,62)       -179.7452                                         !
 ! D159  D(43,53,58,63)        -59.5463                                         !
 ! D160  D(56,53,58,61)        -62.1436                                         !
 ! D161  D(56,53,58,62)         58.0126                                         !
 ! D162  D(56,53,58,63)        178.2115                                         !
 ! D163  D(57,53,58,61)       -178.6461                                         !
 ! D164  D(57,53,58,62)        -58.4899                                         !
 ! D165  D(57,53,58,63)         61.7089                                         !
 ! D166  D(46,54,55,45)         -0.4323                                         !
 ! D167  D(46,54,55,60)       -179.4408                                         !
 ! D168  D(59,54,55,45)        179.2109                                         !
 ! D169  D(59,54,55,60)          0.2023                                         !
 ! D170  D(46,54,59,64)        179.7612                                         !
 ! D171  D(46,54,59,65)          0.2332                                         !
 ! D172  D(55,54,59,64)          0.2251                                         !
 ! D173  D(55,54,59,65)       -179.3028                                         !
 ! D174  D(45,55,60,66)       -179.0866                                         !
 ! D175  D(45,55,60,67)          0.5986                                         !
 ! D176  D(54,55,60,66)         -0.3074                                         !
 ! D177  D(54,55,60,67)        179.3778                                         !
 ! D178  D(54,59,64,66)         -0.5452                                         !
 ! D179  D(54,59,64,68)        177.7884                                         !
 ! D180  D(65,59,64,66)        178.9893                                         !
 ! D181  D(65,59,64,68)         -2.677                                          !
 ! D182  D(55,60,66,64)         -0.0078                                         !
 ! D183  D(55,60,66,69)       -179.3961                                         !
 ! D184  D(67,60,66,64)       -179.6876                                         !
 ! D185  D(67,60,66,69)          0.9241                                         !
 ! D186  D(59,64,66,60)          0.4527                                         !
 ! D187  D(59,64,66,69)        179.8459                                         !
 ! D188  D(68,64,66,60)       -177.8696                                         !
 ! D189  D(68,64,66,69)          1.5235                                         !
 --------------------------------------------------------------------------------
 Stoichiometry    C26H33N4O4S2(2)
 Framework group  C1[X(C26H33N4O4S2)]
 Deg. of freedom   201
 Full point group                 C1      NOp   1
 Largest Abelian subgroup         C1      NOp   1
 Largest concise Abelian subgroup C1      NOp   1
                         Standard orientation:                         
 ---------------------------------------------------------------------
 Center     Atomic      Atomic             Coordinates (Angstroms)
 Number     Number       Type             X           Y           Z
 ---------------------------------------------------------------------
      1          6           0       -4.379199   -3.061312    0.175338
      2          6           0       -3.827241   -1.827650   -0.194388
      3          6           0       -2.964263   -1.745622   -1.306457
      4          6           0       -2.625226   -2.861116   -2.079660
      5          6           0       -3.183081   -4.069156   -1.695091
      6          6           0       -4.047185   -4.169185   -0.583826
      7          1           0       -5.042298   -3.126464    1.031256
      8          1           0       -1.959816   -2.787134   -2.934185
      9          1           0       -2.949629   -4.964057   -2.263057
     10          1           0       -4.456961   -5.139553   -0.323696
     11          7           0       -3.964570   -0.585974    0.394447
     12          7           0       -2.593614   -0.421208   -1.391206
     13          6           0       -1.751606    0.143906   -2.438944
     14          1           0       -1.934003    1.215991   -2.505493
     15          1           0       -0.692640   -0.035014   -2.232554
     16          1           0       -2.030987   -0.318474   -3.388451
     17          6           0       -3.228521    0.195514   -0.340654
     18         16           0       -2.992786    1.936197    0.030970
     19          8           0       -3.788621    2.258195    1.202774
     20          8           0       -3.184411    2.664607   -1.226601
     21          6           0       -1.243723    1.994939    0.438521
     22          6           0       -0.703373    3.425051    0.298934
     23          1           0       -0.719963    1.319489   -0.243820
     24          1           0       -1.153189    1.621501    1.460008
     25          6           0        0.784616    3.439780    0.432529
     26          1           0       -1.004233    3.829127   -0.673354
     27          1           0       -1.165755    4.051607    1.072148
     28          6           0        1.651903    3.626642   -0.747303
     29          1           0        1.233700    3.157869    1.380574
     30          1           0        2.571362    4.187752   -0.542190
     31          1           0        1.131091    4.110496   -1.580368
     32         16           0        2.242733    2.062023   -1.506125
     33          6           0        3.667907    1.604395   -0.512444
     34          8           0        1.216719    1.024275   -1.312433
     35          8           0        2.698178    2.362622   -2.862692
     36          6           0        4.030269    0.132364   -0.766357
     37          1           0        3.391887    1.772881    0.534987
     38          1           0        4.461259    2.296760   -0.803320
     39          1           0        5.078885    0.072895   -1.067940
     40          6           0        3.823021   -0.741514    0.485779
     41          1           0        3.447567   -0.269558   -1.603875
     42          6           0        2.468437   -0.554446    1.117334
     43          6           0        4.183480   -2.214196    0.227300
     44          1           0        4.505663   -0.360916    1.255884
     45          7           0        2.297828    0.235995    2.152445
     46          7           0        1.317019   -1.201547    0.736116
     47          6           0        1.075192   -1.997546   -0.451105
     48          1           0        1.622238   -1.576078   -1.296316
     49          1           0        1.355094   -3.043995   -0.301262
     50          1           0        0.007525   -1.947805   -0.682581
     51          1           0        3.792252   -2.826882    1.049930
     52          1           0        3.692452   -2.568873   -0.688229
     53          6           0        5.688865   -2.457290    0.105214
     54          6           0        0.331966   -0.796196    1.614774
     55          6           0        0.962909    0.108009    2.490166
     56          1           0        6.098016   -1.877226   -0.730612
     57          1           0        6.185544   -2.091154    1.012426
     58          6           0        6.013229   -3.934852   -0.100810
     59          6           0       -1.017561   -1.132903    1.728203
     60          6           0        0.231501    0.702841    3.525071
     61          1           0        5.545693   -4.314043   -1.015532
     62          1           0        7.090995   -4.099035   -0.182403
     63          1           0        5.643434   -4.535763    0.736343
     64          6           0       -1.729431   -0.526328    2.754951
     65          1           0       -1.497806   -1.840158    1.056635
     66          6           0       -1.112199    0.375858    3.644306
     67          1           0        0.715510    1.392949    4.208995
     68          1           0       -2.789676   -0.735048    2.852954
     69          1           0       -1.708076    0.828018    4.430300
 ---------------------------------------------------------------------
 Rotational constants (GHZ):           0.1356651           0.0853939           0.0708609
 Standard basis: def2TZVP (5D, 7F)
 There are  1506 symmetry adapted cartesian basis functions of A   symmetry.
 There are  1326 symmetry adapted basis functions of A   symmetry.
  1326 basis functions,  2136 primitive gaussians,  1506 cartesian basis functions
   141 alpha electrons      140 beta electrons
       nuclear repulsion energy      4813.6787656336 Hartrees.
 NAtoms=   69 NActive=   69 NUniq=   69 SFac= 1.00D+00 NAtFMM=   60 NAOKFM=T Big=T
 Integral buffers will be    131072 words long.
 Raffenetti 2 integral format.
 Two-electron integral symmetry is turned on.
 ------------------------------------------------------------------------------
 Polarizable Continuum Model (PCM)
 =================================
 Model                : PCM.
 Atomic radii         : UFF (Universal Force Field).
 Polarization charges : Total charges.
 Charge compensation  : None.
 Solution method      : On-the-fly selection.
 Cavity type          : Scaled VdW (van der Waals Surface) (Alpha=1.100).
 Cavity algorithm     : GePol (No added spheres)
                        Default sphere list used, NSphG=   69.
                        Lebedev-Laikov grids with approx.  5.0 points / Ang**2.
                        Smoothing algorithm: York/Karplus (Gamma=1.0000).
                        Polarization charges: spherical gaussians, with
                                              point-specific exponents (IZeta= 3).
                        Self-potential: point-specific (ISelfS= 7).
                        Self-field    : sphere-specific E.n sum rule (ISelfD= 2).
 Solvent              : n,n-DiMethylFormamide, Eps=  37.219000 Eps(inf)=   2.046330
 ------------------------------------------------------------------------------
 One-electron integrals computed using PRISM.
   1 Symmetry operations used in ECPInt.
 ECPInt:  NShTT=  141778 NPrTT=  435697 LenC2=  115124 LenP2D=  236929.
 LDataN:  DoStor=T MaxTD1= 6 Len=  172
 Number of processors reduced to  46 by ecpmxn.
 NBasis=  1326 RedAO= T EigKep=  5.35D-06  NBF=  1326
 NBsUse=  1326 1.00D-06 EigRej= -1.00D+00 NBFU=  1326
 ExpMin= 9.52D-02 ExpMax= 6.07D+04 ExpMxC= 2.07D+03 IAcc=3 IRadAn=         5 AccDes= 0.00D+00
 Harris functional with IExCor= 1009 and IRadAn=       5 diagonalized for initial guess.
 HarFok:  IExCor= 1009 AccDes= 0.00D+00 IRadAn=         5 IDoV= 1 UseB2=F ITyADJ=14
 ICtDFT=  3500011 ScaDFX=  1.000000  1.000000  1.000000  1.000000
 FoFCou: FMM=F IPFlag=           0 FMFlag=      100000 FMFlg1=        2001
         NFxFlg=           0 DoJE=T BraDBF=F KetDBF=T FulRan=T
         wScrn=  0.000000 ICntrl=       500 IOpCl=  0 I1Cent=   200000004 NGrid=           0
         NMat0=    1 NMatS0=      1 NMatT0=    0 NMatD0=    1 NMtDS0=    0 NMtDT0=    0
 Petite list used in FoFCou.
 Initial guess <Sx>= 0.0000 <Sy>= 0.0000 <Sz>= 0.5000 <S**2>= 0.7500 S= 0.5000
 Requested convergence on RMS density matrix=1.00D-08 within 128 cycles.
 Requested convergence on MAX density matrix=1.00D-06.
 Requested convergence on             energy=1.00D-06.
 No special actions if energy rises.
 Inv3:  Mode=1 IEnd=    54929523.
 Iteration    1 A*A^-1 deviation from unit magnitude is 3.44D-15 for   2173.
 Iteration    1 A*A^-1 deviation from orthogonality  is 2.44D-15 for   4210   2037.
 Iteration    1 A^-1*A deviation from unit magnitude is 3.55D-15 for   2742.
 Iteration    1 A^-1*A deviation from orthogonality  is 2.52D-15 for   3696   3284.
 Error on total polarization charges =  0.02082
 SCF Done:  E(UM062X) =  -2326.82876806     A.U. after   20 cycles
            NFock= 20  Conv=0.30D-08     -V/T= 2.0039
 <Sx>= 0.0000 <Sy>= 0.0000 <Sz>= 0.5000 <S**2>= 0.7567 S= 0.5034
 <L.S>=  0.00000000000    
 Annihilation of the first spin contaminant:
 S**2 before annihilation     0.7567,   after     0.7500

 **********************************************************************

            Population analysis using the SCF Density.

 **********************************************************************

 Orbital symmetries:
 Alpha Orbitals:
       Occupied  (A) (A) (A) (A) (A) (A) (A) (A) (A) (A) (A) (A)
                 (A) (A) (A) (A) (A) (A) (A) (A) (A) (A) (A) (A)
                 (A) (A) (A) (A) (A) (A) (A) (A) (A) (A) (A) (A)
                 (A) (A) (A) (A) (A) (A) (A) (A) (A) (A) (A) (A)
                 (A) (A) (A) (A) (A) (A) (A) (A) (A) (A) (A) (A)
                 (A) (A) (A) (A) (A) (A) (A) (A) (A) (A) (A) (A)
                 (A) (A) (A) (A) (A) (A) (A) (A) (A) (A) (A) (A)
                 (A) (A) (A) (A) (A) (A) (A) (A) (A) (A) (A) (A)
                 (A) (A) (A) (A) (A) (A) (A) (A) (A) (A) (A) (A)
                 (A) (A) (A) (A) (A) (A) (A) (A) (A) (A) (A) (A)
                 (A) (A) (A) (A) (A) (A) (A) (A) (A) (A) (A) (A)
                 (A) (A) (A) (A) (A) (A) (A) (A) (A)
       Virtual   (A) (A) (A) (A) (A) (A) (A) (A) (A) (A) (A) (A)
                 (A) (A) (A) (A) (A) (A) (A) (A) (A) (A) (A) (A)
                 (A) (A) (A) (A) (A) (A) (A) (A) (A) (A) (A) (A)
                 (A) (A) (A) (A) (A) (A) (A) (A) (A) (A) (A) (A)
                 (A) (A) (A) (A) (A) (A) (A) (A) (A) (A) (A) (A)
                 (A) (A) (A) (A) (A) (A) (A) (A) (A) (A) (A) (A)
                 (A) (A) (A) (A) (A) (A) (A) (A) (A) (A) (A) (A)
                 (A) (A) (A) (A) (A) (A) (A) (A) (A) (A) (A) (A)
                 (A) (A) (A) (A) (A) (A) (A) (A) (A) (A) (A) (A)
                 (A) (A) (A) (A) (A) (A) (A) (A) (A) (A) (A) (A)
                 (A) (A) (A) (A) (A) (A) (A) (A) (A) (A) (A) (A)
                 (A) (A) (A) (A) (A) (A) (A) (A) (A) (A) (A) (A)
                 (A) (A) (A) (A) (A) (A) (A) (A) (A) (A) (A) (A)
                 (A) (A) (A) (A) (A) (A) (A) (A) (A) (A) (A) (A)
                 (A) (A) (A) (A) (A) (A) (A) (A) (A) (A) (A) (A)
                 (A) (A) (A) (A) (A) (A) (A) (A) (A) (A) (A) (A)
                 (A) (A) (A) (A) (A) (A) (A) (A) (A) (A) (A) (A)
                 (A) (A) (A) (A) (A) (A) (A) (A) (A) (A) (A) (A)
                 (A) (A) (A) (A) (A) (A) (A) (A) (A) (A) (A) (A)
                 (A) (A) (A) (A) (A) (A) (A) (A) (A) (A) (A) (A)
                 (A) (A) (A) (A) (A) (A) (A) (A) (A) (A) (A) (A)
                 (A) (A) (A) (A) (A) (A) (A) (A) (A) (A) (A) (A)
                 (A) (A) (A) (A) (A) (A) (A) (A) (A) (A) (A) (A)
                 (A) (A) (A) (A) (A) (A) (A) (A) (A) (A) (A) (A)
                 (A) (A) (A) (A) (A) (A) (A) (A) (A) (A) (A) (A)
                 (A) (A) (A) (A) (A) (A) (A) (A) (A) (A) (A) (A)
                 (A) (A) (A) (A) (A) (A) (A) (A) (A) (A) (A) (A)
                 (A) (A) (A) (A) (A) (A) (A) (A) (A) (A) (A) (A)
                 (A) (A) (A) (A) (A) (A) (A) (A) (A) (A) (A) (A)
                 (A) (A) (A) (A) (A) (A) (A) (A) (A) (A) (A) (A)
                 (A) (A) (A) (A) (A) (A) (A) (A) (A) (A) (A) (A)
                 (A) (A) (A) (A) (A) (A) (A) (A) (A) (A) (A) (A)
                 (A) (A) (A) (A) (A) (A) (A) (A) (A) (A) (A) (A)
                 (A) (A) (A) (A) (A) (A) (A) (A) (A) (A) (A) (A)
                 (A) (A) (A) (A) (A) (A) (A) (A) (A) (A) (A) (A)
                 (A) (A) (A) (A) (A) (A) (A) (A) (A) (A) (A) (A)
                 (A) (A) (A) (A) (A) (A) (A) (A) (A) (A) (A) (A)
                 (A) (A) (A) (A) (A) (A) (A) (A) (A) (A) (A) (A)
                 (A) (A) (A) (A) (A) (A) (A) (A) (A) (A) (A) (A)
                 (A) (A) (A) (A) (A) (A) (A) (A) (A) (A) (A) (A)
                 (A) (A) (A) (A) (A) (A) (A) (A) (A) (A) (A) (A)
                 (A) (A) (A) (A) (A) (A) (A) (A) (A) (A) (A) (A)
                 (A) (A) (A) (A) (A) (A) (A) (A) (A) (A) (A) (A)
                 (A) (A) (A) (A) (A) (A) (A) (A) (A) (A) (A) (A)
                 (A) (A) (A) (A) (A) (A) (A) (A) (A) (A) (A) (A)
                 (A) (A) (A) (A) (A) (A) (A) (A) (A) (A) (A) (A)
                 (A) (A) (A) (A) (A) (A) (A) (A) (A) (A) (A) (A)
                 (A) (A) (A) (A) (A) (A) (A) (A) (A) (A) (A) (A)
                 (A) (A) (A) (A) (A) (A) (A) (A) (A) (A) (A) (A)
                 (A) (A) (A) (A) (A) (A) (A) (A) (A) (A) (A) (A)
                 (A) (A) (A) (A) (A) (A) (A) (A) (A) (A) (A) (A)
                 (A) (A) (A) (A) (A) (A) (A) (A) (A) (A) (A) (A)
                 (A) (A) (A) (A) (A) (A) (A) (A) (A) (A) (A) (A)
                 (A) (A) (A) (A) (A) (A) (A) (A) (A) (A) (A) (A)
                 (A) (A) (A) (A) (A) (A) (A) (A) (A) (A) (A) (A)
                 (A) (A) (A) (A) (A) (A) (A) (A) (A) (A) (A) (A)
                 (A) (A) (A) (A) (A) (A) (A) (A) (A) (A) (A) (A)
                 (A) (A) (A) (A) (A) (A) (A) (A) (A) (A) (A) (A)
                 (A) (A) (A) (A) (A) (A) (A) (A) (A) (A) (A) (A)
                 (A) (A) (A) (A) (A) (A) (A) (A) (A) (A) (A) (A)
                 (A) (A) (A) (A) (A) (A) (A) (A) (A) (A) (A) (A)
                 (A) (A) (A) (A) (A) (A) (A) (A) (A) (A) (A) (A)
                 (A) (A) (A) (A) (A) (A) (A) (A) (A) (A) (A) (A)
                 (A) (A) (A) (A) (A) (A) (A) (A) (A) (A) (A) (A)
                 (A) (A) (A) (A) (A) (A) (A) (A) (A) (A) (A) (A)
                 (A) (A) (A) (A) (A) (A) (A) (A) (A) (A) (A) (A)
                 (A) (A) (A) (A) (A) (A) (A) (A) (A) (A) (A) (A)
                 (A) (A) (A) (A) (A) (A) (A) (A) (A) (A) (A) (A)
                 (A) (A) (A) (A) (A) (A) (A) (A) (A) (A) (A) (A)
                 (A) (A) (A) (A) (A) (A) (A) (A) (A) (A) (A) (A)
                 (A) (A) (A) (A) (A) (A) (A) (A) (A) (A) (A) (A)
                 (A) (A) (A) (A) (A) (A) (A) (A) (A) (A) (A) (A)
                 (A) (A) (A) (A) (A) (A) (A) (A) (A) (A) (A) (A)
                 (A) (A) (A) (A) (A) (A) (A) (A) (A) (A) (A) (A)
                 (A) (A) (A) (A) (A) (A) (A) (A) (A) (A) (A) (A)
                 (A) (A) (A) (A) (A) (A) (A) (A) (A) (A) (A) (A)
                 (A) (A) (A) (A) (A) (A) (A) (A) (A) (A) (A) (A)
                 (A) (A) (A) (A) (A) (A) (A) (A) (A) (A) (A) (A)
                 (A) (A) (A) (A) (A) (A) (A) (A) (A) (A) (A) (A)
                 (A) (A) (A) (A) (A) (A) (A) (A) (A) (A) (A) (A)
                 (A) (A) (A) (A) (A) (A) (A) (A) (A) (A) (A) (A)
                 (A) (A) (A) (A) (A) (A) (A) (A) (A) (A) (A) (A)
                 (A) (A) (A) (A) (A) (A) (A) (A) (A) (A) (A) (A)
                 (A) (A) (A) (A) (A) (A) (A) (A) (A) (A) (A) (A)
                 (A) (A) (A) (A) (A) (A) (A) (A) (A) (A) (A) (A)
                 (A) (A) (A) (A) (A) (A) (A) (A) (A) (A) (A) (A)
                 (A) (A) (A) (A) (A) (A) (A) (A) (A) (A) (A) (A)
                 (A) (A) (A) (A) (A) (A) (A) (A) (A) (A) (A) (A)
                 (A) (A) (A) (A) (A) (A) (A) (A) (A) (A) (A) (A)
                 (A) (A) (A) (A) (A) (A) (A) (A) (A) (A) (A) (A)
                 (A) (A) (A) (A) (A) (A) (A) (A) (A) (A) (A) (A)
                 (A) (A) (A) (A) (A) (A) (A) (A) (A) (A) (A) (A)
                 (A) (A) (A) (A) (A) (A) (A) (A) (A) (A) (A) (A)
                 (A) (A) (A) (A) (A) (A) (A) (A) (A) (A) (A) (A)
                 (A) (A) (A) (A) (A) (A) (A) (A) (A) (A) (A) (A)
                 (A) (A) (A) (A) (A) (A) (A) (A) (A) (A) (A) (A)
                 (A) (A) (A) (A) (A) (A) (A) (A) (A) (A) (A) (A)
                 (A) (A) (A) (A) (A) (A) (A) (A) (A) (A) (A) (A)
                 (A) (A) (A) (A) (A) (A) (A) (A) (A)
 Beta  Orbitals:
       Occupied  (A) (A) (A) (A) (A) (A) (A) (A) (A) (A) (A) (A)
                 (A) (A) (A) (A) (A) (A) (A) (A) (A) (A) (A) (A)
                 (A) (A) (A) (A) (A) (A) (A) (A) (A) (A) (A) (A)
                 (A) (A) (A) (A) (A) (A) (A) (A) (A) (A) (A) (A)
                 (A) (A) (A) (A) (A) (A) (A) (A) (A) (A) (A) (A)
                 (A) (A) (A) (A) (A) (A) (A) (A) (A) (A) (A) (A)
                 (A) (A) (A) (A) (A) (A) (A) (A) (A) (A) (A) (A)
                 (A) (A) (A) (A) (A) (A) (A) (A) (A) (A) (A) (A)
                 (A) (A) (A) (A) (A) (A) (A) (A) (A) (A) (A) (A)
                 (A) (A) (A) (A) (A) (A) (A) (A) (A) (A) (A) (A)
                 (A) (A) (A) (A) (A) (A) (A) (A) (A) (A) (A) (A)
                 (A) (A) (A) (A) (A) (A) (A) (A)
       Virtual   (A) (A) (A) (A) (A) (A) (A) (A) (A) (A) (A) (A)
                 (A) (A) (A) (A) (A) (A) (A) (A) (A) (A) (A) (A)
                 (A) (A) (A) (A) (A) (A) (A) (A) (A) (A) (A) (A)
                 (A) (A) (A) (A) (A) (A) (A) (A) (A) (A) (A) (A)
                 (A) (A) (A) (A) (A) (A) (A) (A) (A) (A) (A) (A)
                 (A) (A) (A) (A) (A) (A) (A) (A) (A) (A) (A) (A)
                 (A) (A) (A) (A) (A) (A) (A) (A) (A) (A) (A) (A)
                 (A) (A) (A) (A) (A) (A) (A) (A) (A) (A) (A) (A)
                 (A) (A) (A) (A) (A) (A) (A) (A) (A) (A) (A) (A)
                 (A) (A) (A) (A) (A) (A) (A) (A) (A) (A) (A) (A)
                 (A) (A) (A) (A) (A) (A) (A) (A) (A) (A) (A) (A)
                 (A) (A) (A) (A) (A) (A) (A) (A) (A) (A) (A) (A)
                 (A) (A) (A) (A) (A) (A) (A) (A) (A) (A) (A) (A)
                 (A) (A) (A) (A) (A) (A) (A) (A) (A) (A) (A) (A)
                 (A) (A) (A) (A) (A) (A) (A) (A) (A) (A) (A) (A)
                 (A) (A) (A) (A) (A) (A) (A) (A) (A) (A) (A) (A)
                 (A) (A) (A) (A) (A) (A) (A) (A) (A) (A) (A) (A)
                 (A) (A) (A) (A) (A) (A) (A) (A) (A) (A) (A) (A)
                 (A) (A) (A) (A) (A) (A) (A) (A) (A) (A) (A) (A)
                 (A) (A) (A) (A) (A) (A) (A) (A) (A) (A) (A) (A)
                 (A) (A) (A) (A) (A) (A) (A) (A) (A) (A) (A) (A)
                 (A) (A) (A) (A) (A) (A) (A) (A) (A) (A) (A) (A)
                 (A) (A) (A) (A) (A) (A) (A) (A) (A) (A) (A) (A)
                 (A) (A) (A) (A) (A) (A) (A) (A) (A) (A) (A) (A)
                 (A) (A) (A) (A) (A) (A) (A) (A) (A) (A) (A) (A)
                 (A) (A) (A) (A) (A) (A) (A) (A) (A) (A) (A) (A)
                 (A) (A) (A) (A) (A) (A) (A) (A) (A) (A) (A) (A)
                 (A) (A) (A) (A) (A) (A) (A) (A) (A) (A) (A) (A)
                 (A) (A) (A) (A) (A) (A) (A) (A) (A) (A) (A) (A)
                 (A) (A) (A) (A) (A) (A) (A) (A) (A) (A) (A) (A)
                 (A) (A) (A) (A) (A) (A) (A) (A) (A) (A) (A) (A)
                 (A) (A) (A) (A) (A) (A) (A) (A) (A) (A) (A) (A)
                 (A) (A) (A) (A) (A) (A) (A) (A) (A) (A) (A) (A)
                 (A) (A) (A) (A) (A) (A) (A) (A) (A) (A) (A) (A)
                 (A) (A) (A) (A) (A) (A) (A) (A) (A) (A) (A) (A)
                 (A) (A) (A) (A) (A) (A) (A) (A) (A) (A) (A) (A)
                 (A) (A) (A) (A) (A) (A) (A) (A) (A) (A) (A) (A)
                 (A) (A) (A) (A) (A) (A) (A) (A) (A) (A) (A) (A)
                 (A) (A) (A) (A) (A) (A) (A) (A) (A) (A) (A) (A)
                 (A) (A) (A) (A) (A) (A) (A) (A) (A) (A) (A) (A)
                 (A) (A) (A) (A) (A) (A) (A) (A) (A) (A) (A) (A)
                 (A) (A) (A) (A) (A) (A) (A) (A) (A) (A) (A) (A)
                 (A) (A) (A) (A) (A) (A) (A) (A) (A) (A) (A) (A)
                 (A) (A) (A) (A) (A) (A) (A) (A) (A) (A) (A) (A)
                 (A) (A) (A) (A) (A) (A) (A) (A) (A) (A) (A) (A)
                 (A) (A) (A) (A) (A) (A) (A) (A) (A) (A) (A) (A)
                 (A) (A) (A) (A) (A) (A) (A) (A) (A) (A) (A) (A)
                 (A) (A) (A) (A) (A) (A) (A) (A) (A) (A) (A) (A)
                 (A) (A) (A) (A) (A) (A) (A) (A) (A) (A) (A) (A)
                 (A) (A) (A) (A) (A) (A) (A) (A) (A) (A) (A) (A)
                 (A) (A) (A) (A) (A) (A) (A) (A) (A) (A) (A) (A)
                 (A) (A) (A) (A) (A) (A) (A) (A) (A) (A) (A) (A)
                 (A) (A) (A) (A) (A) (A) (A) (A) (A) (A) (A) (A)
                 (A) (A) (A) (A) (A) (A) (A) (A) (A) (A) (A) (A)
                 (A) (A) (A) (A) (A) (A) (A) (A) (A) (A) (A) (A)
                 (A) (A) (A) (A) (A) (A) (A) (A) (A) (A) (A) (A)
                 (A) (A) (A) (A) (A) (A) (A) (A) (A) (A) (A) (A)
                 (A) (A) (A) (A) (A) (A) (A) (A) (A) (A) (A) (A)
                 (A) (A) (A) (A) (A) (A) (A) (A) (A) (A) (A) (A)
                 (A) (A) (A) (A) (A) (A) (A) (A) (A) (A) (A) (A)
                 (A) (A) (A) (A) (A) (A) (A) (A) (A) (A) (A) (A)
                 (A) (A) (A) (A) (A) (A) (A) (A) (A) (A) (A) (A)
                 (A) (A) (A) (A) (A) (A) (A) (A) (A) (A) (A) (A)
                 (A) (A) (A) (A) (A) (A) (A) (A) (A) (A) (A) (A)
                 (A) (A) (A) (A) (A) (A) (A) (A) (A) (A) (A) (A)
                 (A) (A) (A) (A) (A) (A) (A) (A) (A) (A) (A) (A)
                 (A) (A) (A) (A) (A) (A) (A) (A) (A) (A) (A) (A)
                 (A) (A) (A) (A) (A) (A) (A) (A) (A) (A) (A) (A)
                 (A) (A) (A) (A) (A) (A) (A) (A) (A) (A) (A) (A)
                 (A) (A) (A) (A) (A) (A) (A) (A) (A) (A) (A) (A)
                 (A) (A) (A) (A) (A) (A) (A) (A) (A) (A) (A) (A)
                 (A) (A) (A) (A) (A) (A) (A) (A) (A) (A) (A) (A)
                 (A) (A) (A) (A) (A) (A) (A) (A) (A) (A) (A) (A)
                 (A) (A) (A) (A) (A) (A) (A) (A) (A) (A) (A) (A)
                 (A) (A) (A) (A) (A) (A) (A) (A) (A) (A) (A) (A)
                 (A) (A) (A) (A) (A) (A) (A) (A) (A) (A) (A) (A)
                 (A) (A) (A) (A) (A) (A) (A) (A) (A) (A) (A) (A)
                 (A) (A) (A) (A) (A) (A) (A) (A) (A) (A) (A) (A)
                 (A) (A) (A) (A) (A) (A) (A) (A) (A) (A) (A) (A)
                 (A) (A) (A) (A) (A) (A) (A) (A) (A) (A) (A) (A)
                 (A) (A) (A) (A) (A) (A) (A) (A) (A) (A) (A) (A)
                 (A) (A) (A) (A) (A) (A) (A) (A) (A) (A) (A) (A)
                 (A) (A) (A) (A) (A) (A) (A) (A) (A) (A) (A) (A)
                 (A) (A) (A) (A) (A) (A) (A) (A) (A) (A) (A) (A)
                 (A) (A) (A) (A) (A) (A) (A) (A) (A) (A) (A) (A)
                 (A) (A) (A) (A) (A) (A) (A) (A) (A) (A) (A) (A)
                 (A) (A) (A) (A) (A) (A) (A) (A) (A) (A) (A) (A)
                 (A) (A) (A) (A) (A) (A) (A) (A) (A) (A) (A) (A)
                 (A) (A) (A) (A) (A) (A) (A) (A) (A) (A) (A) (A)
                 (A) (A) (A) (A) (A) (A) (A) (A) (A) (A) (A) (A)
                 (A) (A) (A) (A) (A) (A) (A) (A) (A) (A) (A) (A)
                 (A) (A) (A) (A) (A) (A) (A) (A) (A) (A) (A) (A)
                 (A) (A) (A) (A) (A) (A) (A) (A) (A) (A) (A) (A)
                 (A) (A) (A) (A) (A) (A) (A) (A) (A) (A) (A) (A)
                 (A) (A) (A) (A) (A) (A) (A) (A) (A) (A) (A) (A)
                 (A) (A) (A) (A) (A) (A) (A) (A) (A) (A) (A) (A)
                 (A) (A) (A) (A) (A) (A) (A) (A) (A) (A) (A) (A)
                 (A) (A) (A) (A) (A) (A) (A) (A) (A) (A) (A) (A)
                 (A) (A) (A) (A) (A) (A) (A) (A) (A) (A)
 The electronic state is 2-A.
 Alpha  occ. eigenvalues --  -90.10995 -90.09557 -19.64147 -19.63840 -19.63365
 Alpha  occ. eigenvalues --  -19.63197 -14.83289 -14.80943 -14.76700 -14.74179
 Alpha  occ. eigenvalues --  -10.64488 -10.61680 -10.59504 -10.58795 -10.58461
 Alpha  occ. eigenvalues --  -10.58190 -10.58133 -10.58125 -10.57959 -10.57959
 Alpha  occ. eigenvalues --  -10.57722 -10.56860 -10.56381 -10.56308 -10.56093
 Alpha  occ. eigenvalues --  -10.56052 -10.55611 -10.55562 -10.55229 -10.55075
 Alpha  occ. eigenvalues --  -10.54862 -10.54558 -10.54380 -10.54017 -10.53356
 Alpha  occ. eigenvalues --  -10.52279  -8.44065  -8.42764  -6.36207  -6.36113
 Alpha  occ. eigenvalues --   -6.36111  -6.34907  -6.34795  -6.34777  -1.24384
 Alpha  occ. eigenvalues --   -1.23226  -1.16189  -1.14265  -1.13988  -1.12935
 Alpha  occ. eigenvalues --   -1.02650  -1.00609  -0.96668  -0.96265  -0.94601
 Alpha  occ. eigenvalues --   -0.93612  -0.90555  -0.88775  -0.86729  -0.86033
 Alpha  occ. eigenvalues --   -0.85652  -0.85058  -0.83010  -0.82478  -0.81154
 Alpha  occ. eigenvalues --   -0.80669  -0.77113  -0.75054  -0.73566  -0.70826
 Alpha  occ. eigenvalues --   -0.70385  -0.69812  -0.68700  -0.68250  -0.66904
 Alpha  occ. eigenvalues --   -0.66553  -0.66514  -0.65032  -0.61704  -0.60023
 Alpha  occ. eigenvalues --   -0.59724  -0.59586  -0.59043  -0.58860  -0.58175
 Alpha  occ. eigenvalues --   -0.57793  -0.57472  -0.57442  -0.56694  -0.55752
 Alpha  occ. eigenvalues --   -0.55152  -0.54537  -0.54169  -0.52832  -0.52474
 Alpha  occ. eigenvalues --   -0.52326  -0.51934  -0.51756  -0.51494  -0.50966
 Alpha  occ. eigenvalues --   -0.50404  -0.49620  -0.49532  -0.48877  -0.48698
 Alpha  occ. eigenvalues --   -0.48308  -0.47880  -0.47572  -0.47327  -0.46265
 Alpha  occ. eigenvalues --   -0.45735  -0.44423  -0.44135  -0.43828  -0.43712
 Alpha  occ. eigenvalues --   -0.43353  -0.43084  -0.42905  -0.42807  -0.42359
 Alpha  occ. eigenvalues --   -0.42093  -0.41907  -0.41518  -0.40954  -0.40532
 Alpha  occ. eigenvalues --   -0.40120  -0.39664  -0.39252  -0.38914  -0.38572
 Alpha  occ. eigenvalues --   -0.38144  -0.38140  -0.37412  -0.36865  -0.36699
 Alpha  occ. eigenvalues --   -0.35453  -0.30365  -0.29731  -0.28729  -0.28423
 Alpha  occ. eigenvalues --   -0.26933
 Alpha virt. eigenvalues --   -0.02661  -0.00264   0.02582   0.03495   0.04113
 Alpha virt. eigenvalues --    0.05242   0.05928   0.06383   0.07077   0.07282
 Alpha virt. eigenvalues --    0.07819   0.08114   0.08346   0.08567   0.08799
 Alpha virt. eigenvalues --    0.09028   0.09200   0.09698   0.09995   0.10327
 Alpha virt. eigenvalues --    0.10680   0.11222   0.11459   0.11604   0.11760
 Alpha virt. eigenvalues --    0.12158   0.12437   0.12814   0.13013   0.13363
 Alpha virt. eigenvalues --    0.13699   0.13865   0.14078   0.14375   0.14698
 Alpha virt. eigenvalues --    0.14872   0.15118   0.15438   0.15699   0.16053
 Alpha virt. eigenvalues --    0.16499   0.16896   0.17045   0.17518   0.17766
 Alpha virt. eigenvalues --    0.18075   0.18437   0.18703   0.18969   0.19067
 Alpha virt. eigenvalues --    0.19330   0.19512   0.20195   0.20608   0.20669
 Alpha virt. eigenvalues --    0.20713   0.21652   0.21723   0.21900   0.22197
 Alpha virt. eigenvalues --    0.22624   0.22856   0.23170   0.23941   0.24009
 Alpha virt. eigenvalues --    0.24274   0.24363   0.24673   0.25002   0.25096
 Alpha virt. eigenvalues --    0.25614   0.25842   0.26019   0.26394   0.26963
 Alpha virt. eigenvalues --    0.27263   0.27517   0.27721   0.28036   0.28235
 Alpha virt. eigenvalues --    0.28632   0.29152   0.29323   0.29526   0.29655
 Alpha virt. eigenvalues --    0.30246   0.30348   0.30632   0.31090   0.31471
 Alpha virt. eigenvalues --    0.31955   0.32266   0.32523   0.32864   0.33242
 Alpha virt. eigenvalues --    0.33632   0.33873   0.34214   0.34532   0.34809
 Alpha virt. eigenvalues --    0.35044   0.35297   0.35631   0.35976   0.36295
 Alpha virt. eigenvalues --    0.36597   0.36656   0.37120   0.37230   0.37580
 Alpha virt. eigenvalues --    0.37914   0.38197   0.38493   0.38918   0.39144
 Alpha virt. eigenvalues --    0.39443   0.39789   0.40088   0.40416   0.40678
 Alpha virt. eigenvalues --    0.40926   0.41177   0.41410   0.41583   0.41897
 Alpha virt. eigenvalues --    0.42208   0.42441   0.42584   0.42648   0.43085
 Alpha virt. eigenvalues --    0.43277   0.43709   0.43852   0.43926   0.44500
 Alpha virt. eigenvalues --    0.44779   0.44819   0.45016   0.45275   0.45563
 Alpha virt. eigenvalues --    0.45746   0.46094   0.46349   0.46705   0.47054
 Alpha virt. eigenvalues --    0.47095   0.47422   0.47703   0.47978   0.48301
 Alpha virt. eigenvalues --    0.48421   0.48713   0.48931   0.49036   0.49375
 Alpha virt. eigenvalues --    0.49692   0.49867   0.50127   0.50330   0.50600
 Alpha virt. eigenvalues --    0.50903   0.51248   0.51322   0.51528   0.51647
 Alpha virt. eigenvalues --    0.52000   0.52322   0.52553   0.52908   0.52987
 Alpha virt. eigenvalues --    0.53361   0.53542   0.53815   0.54271   0.54483
 Alpha virt. eigenvalues --    0.54871   0.55222   0.55426   0.55654   0.55839
 Alpha virt. eigenvalues --    0.56126   0.56347   0.56695   0.56919   0.57430
 Alpha virt. eigenvalues --    0.57553   0.58323   0.58471   0.58823   0.59456
 Alpha virt. eigenvalues --    0.59640   0.60416   0.60696   0.60739   0.61067
 Alpha virt. eigenvalues --    0.61459   0.61781   0.62486   0.62880   0.63190
 Alpha virt. eigenvalues --    0.63457   0.63994   0.64380   0.64407   0.64803
 Alpha virt. eigenvalues --    0.65234   0.65489   0.65918   0.66059   0.66617
 Alpha virt. eigenvalues --    0.67072   0.67333   0.67961   0.68540   0.68770
 Alpha virt. eigenvalues --    0.68960   0.69223   0.69955   0.70397   0.70679
 Alpha virt. eigenvalues --    0.71025   0.71337   0.72050   0.72389   0.72898
 Alpha virt. eigenvalues --    0.73068   0.73563   0.73651   0.73779   0.74299
 Alpha virt. eigenvalues --    0.74467   0.74923   0.75228   0.75670   0.75928
 Alpha virt. eigenvalues --    0.76456   0.76644   0.77327   0.77498   0.77704
 Alpha virt. eigenvalues --    0.78131   0.78880   0.79178   0.79416   0.80098
 Alpha virt. eigenvalues --    0.80347   0.80867   0.80952   0.81404   0.81567
 Alpha virt. eigenvalues --    0.82527   0.82760   0.82917   0.83469   0.83787
 Alpha virt. eigenvalues --    0.84179   0.84502   0.85092   0.85448   0.85882
 Alpha virt. eigenvalues --    0.85969   0.86757   0.87082   0.87819   0.88124
 Alpha virt. eigenvalues --    0.88683   0.88945   0.89029   0.89605   0.89735
 Alpha virt. eigenvalues --    0.90128   0.90857   0.91123   0.92162   0.92258
 Alpha virt. eigenvalues --    0.92599   0.93047   0.93080   0.93875   0.94151
 Alpha virt. eigenvalues --    0.94465   0.95011   0.95336   0.95854   0.96073
 Alpha virt. eigenvalues --    0.96750   0.97250   0.97731   0.97856   0.98729
 Alpha virt. eigenvalues --    0.99104   0.99642   0.99938   1.00278   1.00932
 Alpha virt. eigenvalues --    1.01829   1.02152   1.02531   1.02653   1.03181
 Alpha virt. eigenvalues --    1.03651   1.03803   1.04230   1.04787   1.05195
 Alpha virt. eigenvalues --    1.05417   1.05860   1.06650   1.07159   1.07458
 Alpha virt. eigenvalues --    1.08320   1.08946   1.09311   1.09516   1.10366
 Alpha virt. eigenvalues --    1.10905   1.11400   1.11863   1.12202   1.12483
 Alpha virt. eigenvalues --    1.12730   1.13320   1.13803   1.15096   1.15363
 Alpha virt. eigenvalues --    1.15509   1.15810   1.16384   1.16634   1.17003
 Alpha virt. eigenvalues --    1.17353   1.17728   1.18044   1.18596   1.18945
 Alpha virt. eigenvalues --    1.19628   1.19800   1.19967   1.21354   1.21795
 Alpha virt. eigenvalues --    1.22273   1.22529   1.22737   1.23684   1.24121
 Alpha virt. eigenvalues --    1.24272   1.24948   1.25120   1.25460   1.25915
 Alpha virt. eigenvalues --    1.26570   1.26734   1.27209   1.27873   1.28129
 Alpha virt. eigenvalues --    1.28978   1.29264   1.29785   1.30002   1.30289
 Alpha virt. eigenvalues --    1.30939   1.31516   1.32516   1.32638   1.32849
 Alpha virt. eigenvalues --    1.33423   1.34107   1.34195   1.34947   1.35149
 Alpha virt. eigenvalues --    1.35431   1.36378   1.36947   1.37386   1.38402
 Alpha virt. eigenvalues --    1.38589   1.39388   1.40484   1.40849   1.41663
 Alpha virt. eigenvalues --    1.42158   1.42856   1.43375   1.43797   1.44781
 Alpha virt. eigenvalues --    1.45182   1.45403   1.45692   1.46370   1.46928
 Alpha virt. eigenvalues --    1.47737   1.48269   1.48689   1.49082   1.49571
 Alpha virt. eigenvalues --    1.49929   1.50001   1.50830   1.51196   1.51799
 Alpha virt. eigenvalues --    1.52228   1.52539   1.52996   1.53759   1.54302
 Alpha virt. eigenvalues --    1.54738   1.55234   1.55539   1.55988   1.56812
 Alpha virt. eigenvalues --    1.57082   1.57651   1.57685   1.57973   1.58656
 Alpha virt. eigenvalues --    1.58857   1.59252   1.59569   1.60011   1.60331
 Alpha virt. eigenvalues --    1.60630   1.60860   1.61221   1.61940   1.62146
 Alpha virt. eigenvalues --    1.62296   1.62596   1.63008   1.63383   1.63667
 Alpha virt. eigenvalues --    1.64130   1.64596   1.65016   1.65388   1.65534
 Alpha virt. eigenvalues --    1.66181   1.66480   1.66579   1.67432   1.67832
 Alpha virt. eigenvalues --    1.67968   1.68194   1.68819   1.68983   1.69233
 Alpha virt. eigenvalues --    1.69723   1.69964   1.70310   1.70594   1.71241
 Alpha virt. eigenvalues --    1.72033   1.72172   1.72629   1.73070   1.73513
 Alpha virt. eigenvalues --    1.73789   1.74043   1.74363   1.74667   1.74912
 Alpha virt. eigenvalues --    1.75199   1.75372   1.76182   1.76482   1.76725
 Alpha virt. eigenvalues --    1.77145   1.77686   1.77772   1.78177   1.78931
 Alpha virt. eigenvalues --    1.80171   1.80398   1.80835   1.81170   1.81357
 Alpha virt. eigenvalues --    1.82459   1.82769   1.83309   1.83443   1.84133
 Alpha virt. eigenvalues --    1.84248   1.85104   1.85424   1.86014   1.86294
 Alpha virt. eigenvalues --    1.87044   1.87263   1.87443   1.88243   1.88415
 Alpha virt. eigenvalues --    1.88578   1.89110   1.89370   1.89595   1.90023
 Alpha virt. eigenvalues --    1.90649   1.91296   1.91678   1.92011   1.92411
 Alpha virt. eigenvalues --    1.92983   1.93791   1.94611   1.94665   1.94909
 Alpha virt. eigenvalues --    1.95138   1.95719   1.96349   1.97465   1.97646
 Alpha virt. eigenvalues --    1.98148   1.98662   1.99448   1.99868   2.00069
 Alpha virt. eigenvalues --    2.01166   2.01380   2.02303   2.02478   2.02764
 Alpha virt. eigenvalues --    2.03350   2.03640   2.04580   2.04764   2.04951
 Alpha virt. eigenvalues --    2.05888   2.06365   2.06566   2.06920   2.07878
 Alpha virt. eigenvalues --    2.08730   2.09004   2.09565   2.09948   2.10145
 Alpha virt. eigenvalues --    2.10931   2.11428   2.12033   2.12357   2.12924
 Alpha virt. eigenvalues --    2.13444   2.14241   2.14502   2.15363   2.15610
 Alpha virt. eigenvalues --    2.15939   2.16465   2.17327   2.18055   2.18574
 Alpha virt. eigenvalues --    2.19117   2.19804   2.19954   2.20615   2.21046
 Alpha virt. eigenvalues --    2.21644   2.22251   2.22456   2.22808   2.23134
 Alpha virt. eigenvalues --    2.23369   2.24436   2.25004   2.25568   2.25996
 Alpha virt. eigenvalues --    2.26512   2.27328   2.27540   2.28422   2.28769
 Alpha virt. eigenvalues --    2.28977   2.29465   2.30076   2.30436   2.30872
 Alpha virt. eigenvalues --    2.31633   2.31777   2.32082   2.32666   2.33640
 Alpha virt. eigenvalues --    2.33992   2.34802   2.35164   2.35318   2.35495
 Alpha virt. eigenvalues --    2.35979   2.36126   2.36712   2.37030   2.37707
 Alpha virt. eigenvalues --    2.38193   2.39048   2.39517   2.40093   2.40269
 Alpha virt. eigenvalues --    2.40789   2.41579   2.41630   2.42070   2.42469
 Alpha virt. eigenvalues --    2.43041   2.43793   2.43982   2.44459   2.44975
 Alpha virt. eigenvalues --    2.45297   2.45582   2.46250   2.46671   2.47116
 Alpha virt. eigenvalues --    2.47373   2.47891   2.48294   2.48699   2.49540
 Alpha virt. eigenvalues --    2.50134   2.50484   2.50548   2.51456   2.51562
 Alpha virt. eigenvalues --    2.52060   2.52335   2.52586   2.52906   2.53523
 Alpha virt. eigenvalues --    2.54233   2.54572   2.54733   2.54965   2.55234
 Alpha virt. eigenvalues --    2.56444   2.56891   2.57584   2.57705   2.58467
 Alpha virt. eigenvalues --    2.58713   2.59260   2.59641   2.60278   2.60491
 Alpha virt. eigenvalues --    2.60880   2.61351   2.61795   2.62130   2.62175
 Alpha virt. eigenvalues --    2.62710   2.63552   2.63906   2.64166   2.64478
 Alpha virt. eigenvalues --    2.64900   2.65233   2.65580   2.65999   2.66396
 Alpha virt. eigenvalues --    2.66661   2.66711   2.67333   2.67919   2.68104
 Alpha virt. eigenvalues --    2.68475   2.68794   2.69147   2.69291   2.69801
 Alpha virt. eigenvalues --    2.70017   2.70339   2.70595   2.70777   2.71347
 Alpha virt. eigenvalues --    2.71939   2.72017   2.72624   2.72961   2.73319
 Alpha virt. eigenvalues --    2.73832   2.74044   2.74763   2.75080   2.75316
 Alpha virt. eigenvalues --    2.75436   2.76590   2.77141   2.77623   2.77743
 Alpha virt. eigenvalues --    2.78052   2.78678   2.79324   2.79525   2.79901
 Alpha virt. eigenvalues --    2.80187   2.81343   2.81453   2.81986   2.82155
 Alpha virt. eigenvalues --    2.82387   2.82523   2.84128   2.84378   2.84510
 Alpha virt. eigenvalues --    2.84823   2.85408   2.86308   2.86818   2.87285
 Alpha virt. eigenvalues --    2.87772   2.87916   2.88898   2.89259   2.89599
 Alpha virt. eigenvalues --    2.90306   2.90346   2.91327   2.91598   2.92026
 Alpha virt. eigenvalues --    2.92958   2.93160   2.93710   2.94559   2.95476
 Alpha virt. eigenvalues --    2.95965   2.96242   2.96444   2.96810   2.97321
 Alpha virt. eigenvalues --    2.97881   2.98518   2.98602   2.98892   2.99664
 Alpha virt. eigenvalues --    3.00780   3.01549   3.02239   3.02407   3.03188
 Alpha virt. eigenvalues --    3.04329   3.04730   3.04953   3.05414   3.06087
 Alpha virt. eigenvalues --    3.06358   3.07196   3.07608   3.07914   3.08371
 Alpha virt. eigenvalues --    3.08445   3.09302   3.09525   3.09916   3.10564
 Alpha virt. eigenvalues --    3.10829   3.11192   3.11212   3.11623   3.11960
 Alpha virt. eigenvalues --    3.12589   3.13031   3.13168   3.13476   3.13640
 Alpha virt. eigenvalues --    3.14163   3.14746   3.15212   3.15347   3.15658
 Alpha virt. eigenvalues --    3.16182   3.16576   3.16703   3.17382   3.17915
 Alpha virt. eigenvalues --    3.18119   3.18454   3.18923   3.19216   3.19413
 Alpha virt. eigenvalues --    3.19923   3.20169   3.20516   3.21078   3.21534
 Alpha virt. eigenvalues --    3.21911   3.22449   3.22998   3.23525   3.23902
 Alpha virt. eigenvalues --    3.24016   3.24269   3.24445   3.24761   3.25694
 Alpha virt. eigenvalues --    3.25862   3.26031   3.26738   3.26846   3.27214
 Alpha virt. eigenvalues --    3.27450   3.28195   3.28263   3.28843   3.29412
 Alpha virt. eigenvalues --    3.29612   3.29704   3.30092   3.30933   3.31150
 Alpha virt. eigenvalues --    3.31769   3.32251   3.32444   3.32940   3.33263
 Alpha virt. eigenvalues --    3.33727   3.34077   3.34332   3.35113   3.35307
 Alpha virt. eigenvalues --    3.35803   3.35902   3.36349   3.36654   3.37235
 Alpha virt. eigenvalues --    3.37647   3.37884   3.38449   3.38742   3.39056
 Alpha virt. eigenvalues --    3.39368   3.39670   3.39929   3.39964   3.40621
 Alpha virt. eigenvalues --    3.40808   3.41243   3.41507   3.41768   3.41976
 Alpha virt. eigenvalues --    3.42174   3.42598   3.42958   3.43595   3.43928
 Alpha virt. eigenvalues --    3.44131   3.44672   3.45079   3.45353   3.45935
 Alpha virt. eigenvalues --    3.46165   3.46683   3.47258   3.47451   3.48044
[...]
 
              Baa    -0.0002    -0.129    -0.046    -0.043  0.6332 -0.4702  0.6148
     7 H(1)   Bbb    -0.0002    -0.120    -0.043    -0.040 -0.3937  0.4883  0.7789
              Bcc     0.0005     0.249     0.089     0.083  0.6664  0.7352 -0.1240
 
              Baa    -0.0004    -0.199    -0.071    -0.066  0.4313 -0.5730  0.6969
     8 H(1)   Bbb    -0.0003    -0.177    -0.063    -0.059  0.8260 -0.0600 -0.5605
              Bcc     0.0007     0.375     0.134     0.125  0.3630  0.8173  0.4475
 
              Baa    -0.0002    -0.105    -0.037    -0.035  0.1332 -0.3827  0.9142
     9 H(1)   Bbb    -0.0002    -0.086    -0.031    -0.029  0.9275 -0.2770 -0.2511
              Bcc     0.0004     0.191     0.068     0.064  0.3493  0.8814  0.3180
 
              Baa    -0.0002    -0.085    -0.030    -0.028  0.8295 -0.5152  0.2157
    10 H(1)   Bbb    -0.0001    -0.079    -0.028    -0.027 -0.2024  0.0826  0.9758
              Bcc     0.0003     0.164     0.059     0.055  0.5205  0.8531  0.0358
 
              Baa    -0.0024    -0.093    -0.033    -0.031 -0.1769  0.4476  0.8765
    11 N(14)  Bbb    -0.0002    -0.009    -0.003    -0.003  0.6865  0.6943 -0.2160
              Bcc     0.0026     0.102     0.036     0.034  0.7053 -0.5636  0.4301
 
              Baa    -0.0016    -0.061    -0.022    -0.020 -0.2326 -0.2108  0.9494
    12 N(14)  Bbb     0.0002     0.006     0.002     0.002 -0.3709  0.9217  0.1137
              Bcc     0.0014     0.055     0.020     0.018  0.8991  0.3257  0.2926
 
              Baa    -0.0012    -0.165    -0.059    -0.055 -0.5238  0.7591 -0.3865
    13 C(13)  Bbb    -0.0009    -0.127    -0.045    -0.042 -0.6946 -0.1181  0.7096
              Bcc     0.0022     0.292     0.104     0.098  0.4930  0.6402  0.5891
 
              Baa    -0.0016    -0.848    -0.303    -0.283 -0.3413  0.8952 -0.2866
    14 H(1)   Bbb    -0.0013    -0.676    -0.241    -0.225  0.7262  0.0575 -0.6851
              Bcc     0.0029     1.524     0.544     0.508  0.5968  0.4419  0.6697
 
              Baa    -0.0016    -0.847    -0.302    -0.283 -0.4162  0.6900 -0.5922
    15 H(1)   Bbb    -0.0014    -0.726    -0.259    -0.242  0.8364  0.0349 -0.5471
              Bcc     0.0029     1.573     0.561     0.525  0.3568  0.7229  0.5917
 
              Baa    -0.0007    -0.374    -0.133    -0.125 -0.3946  0.7999 -0.4521
    16 H(1)   Bbb    -0.0006    -0.323    -0.115    -0.108  0.7833  0.0356 -0.6206
              Bcc     0.0013     0.697     0.249     0.233  0.4803  0.5990  0.6407
 
              Baa    -0.0035    -0.473    -0.169    -0.158  0.3239 -0.2506  0.9123
    17 C(13)  Bbb    -0.0022    -0.294    -0.105    -0.098  0.9014 -0.2112 -0.3781
              Bcc     0.0057     0.767     0.274     0.256  0.2874  0.9448  0.1575
 
              Baa    -0.0229    -0.941    -0.336    -0.314  0.0066  0.9690  0.2469
    18 S(33)  Bbb    -0.0193    -0.793    -0.283    -0.264 -0.2748 -0.2356  0.9322
              Bcc     0.0423     1.733     0.619     0.578  0.9615 -0.0740  0.2647
 
              Baa    -0.0093     0.674     0.241     0.225 -0.1072  0.9832  0.1476
    19 O(17)  Bbb    -0.0073     0.525     0.188     0.175 -0.1627 -0.1638  0.9730
              Bcc     0.0166    -1.200    -0.428    -0.400  0.9808  0.0802  0.1776
 
              Baa    -0.0033     0.240     0.086     0.080 -0.3021  0.8940 -0.3309
    20 O(17)  Bbb    -0.0024     0.174     0.062     0.058 -0.4435  0.1755  0.8789
              Bcc     0.0057    -0.415    -0.148    -0.138  0.8438  0.4123  0.3434
 
              Baa    -0.0285    -3.831    -1.367    -1.278  0.1842  0.0554  0.9813
    21 C(13)  Bbb    -0.0266    -3.573    -1.275    -1.192  0.8563 -0.4992 -0.1325
              Bcc     0.0552     7.404     2.642     2.470  0.4826  0.8647 -0.1393
 
              Baa    -0.0102    -1.368    -0.488    -0.456  0.0150 -0.4504  0.8927
    22 C(13)  Bbb     0.0035     0.473     0.169     0.158  0.9004 -0.3821 -0.2079
              Bcc     0.0067     0.895     0.319     0.298  0.4347  0.8069  0.3998
 
              Baa    -0.0097    -5.160    -1.841    -1.721  0.0493 -0.3618  0.9309
    23 H(1)   Bbb    -0.0033    -1.763    -0.629    -0.588  0.8554 -0.4659 -0.2264
              Bcc     0.0130     6.923     2.470     2.309  0.5157  0.8075  0.2865
 
              Baa    -0.0071    -3.778    -1.348    -1.260 -0.2307  0.7310  0.6422
    24 H(1)   Bbb    -0.0041    -2.176    -0.776    -0.726  0.7791 -0.2567  0.5720
              Bcc     0.0112     5.954     2.125     1.986  0.5830  0.6323 -0.5103
 
              Baa    -0.5306   -71.205   -25.408   -23.751  0.8882  0.0732 -0.4536
    25 C(13)  Bbb    -0.5256   -70.527   -25.166   -23.525  0.4584 -0.2083  0.8640
              Bcc     1.0562   141.731    50.573    47.277  0.0312  0.9753  0.2186
 
              Baa    -0.0098    -5.230    -1.866    -1.744 -0.4831 -0.4106  0.7733
    26 H(1)   Bbb    -0.0068    -3.605    -1.286    -1.202 -0.1019  0.9036  0.4161
              Bcc     0.0166     8.835     3.152     2.947  0.8696 -0.1222  0.4784
 
              Baa    -0.0095    -5.053    -1.803    -1.685 -0.0468  0.7183 -0.6942
    27 H(1)   Bbb    -0.0087    -4.620    -1.649    -1.541  0.3430  0.6643  0.6642
              Bcc     0.0181     9.673     3.452     3.227  0.9382 -0.2070 -0.2774
 
              Baa    -0.0284    -3.809    -1.359    -1.271 -0.2033  0.9516  0.2306
    28 C(13)  Bbb     0.0041     0.545     0.194     0.182  0.7468 -0.0017  0.6650
              Bcc     0.0243     3.265     1.165     1.089 -0.6332 -0.3074  0.7103
 
              Baa    -0.0666   -35.537   -12.680   -11.854  0.9135  0.0755 -0.3999
    29 H(1)   Bbb    -0.0036    -1.947    -0.695    -0.649  0.0662  0.9420  0.3290
              Bcc     0.0703    37.484    13.375    12.503  0.4015 -0.3269  0.8555
 
              Baa    -0.0094    -5.022    -1.792    -1.675  0.5802 -0.0071  0.8145
    30 H(1)   Bbb    -0.0074    -3.931    -1.403    -1.311 -0.2146  0.9633  0.1612
              Bcc     0.0168     8.954     3.195     2.987  0.7857  0.2683 -0.5573
 
              Baa    -0.0099    -5.261    -1.877    -1.755  0.9472 -0.2428  0.2095
    31 H(1)   Bbb    -0.0066    -3.540    -1.263    -1.181  0.1773  0.9408  0.2888
              Bcc     0.0165     8.801     3.140     2.936 -0.2673 -0.2364  0.9342
 
              Baa    -0.2006    -8.226    -2.935    -2.744  0.4463 -0.2124  0.8693
    32 S(33)  Bbb    -0.1949    -7.989    -2.851    -2.665  0.8175  0.4918 -0.2996
              Bcc     0.3955    16.216     5.786     5.409 -0.3639  0.8444  0.3932
 
              Baa    -0.0091    -1.227    -0.438    -0.409  0.4548  0.8752 -0.1649
    33 C(13)  Bbb    -0.0054    -0.728    -0.260    -0.243 -0.3878  0.3613  0.8480
              Bcc     0.0146     1.956     0.698     0.652  0.8017 -0.3217  0.5037
 
              Baa    -0.0257     1.860     0.664     0.620 -0.0948  0.3696  0.9243
    34 O(17)  Bbb    -0.0181     1.307     0.466     0.436  0.9947 -0.0012  0.1025
              Bcc     0.0438    -3.167    -1.130    -1.056  0.0390  0.9292 -0.3676
 
              Baa    -0.0610     4.415     1.575     1.473  0.8744  0.4556  0.1669
    35 O(17)  Bbb    -0.0579     4.190     1.495     1.398  0.1447 -0.5732  0.8065
              Bcc     0.1189    -8.605    -3.070    -2.870 -0.4631  0.6811  0.5672
 
              Baa    -0.0021    -0.279    -0.100    -0.093  0.5819  0.4310  0.6897
    36 C(13)  Bbb    -0.0019    -0.252    -0.090    -0.084 -0.5139 -0.4625  0.7225
              Bcc     0.0040     0.531     0.190     0.177 -0.6304  0.7748  0.0476
 
              Baa    -0.0051    -2.716    -0.969    -0.906  0.4540  0.8909  0.0135
    37 H(1)   Bbb    -0.0039    -2.079    -0.742    -0.694 -0.0481  0.0094  0.9988
              Bcc     0.0090     4.796     1.711     1.600  0.8897 -0.4541  0.0471
 
              Baa    -0.0023    -1.226    -0.437    -0.409  0.1581  0.0272  0.9870
    38 H(1)   Bbb    -0.0020    -1.079    -0.385    -0.360  0.1427  0.9885 -0.0501
              Bcc     0.0043     2.305     0.823     0.769  0.9771 -0.1487 -0.1524
 
              Baa    -0.0010    -0.549    -0.196    -0.183  0.5450  0.4765  0.6899
    39 H(1)   Bbb    -0.0009    -0.460    -0.164    -0.153 -0.3155 -0.6458  0.6953
              Bcc     0.0019     1.009     0.360     0.337  0.7768 -0.5965 -0.2016
 
              Baa    -0.0014    -0.184    -0.066    -0.061  0.5590  0.4834  0.6737
    40 C(13)  Bbb    -0.0008    -0.103    -0.037    -0.034 -0.6447 -0.2576  0.7197
              Bcc     0.0021     0.287     0.102     0.096 -0.5214  0.8367 -0.1677
 
              Baa    -0.0014    -0.772    -0.276    -0.258  0.7108  0.1370  0.6900
    41 H(1)   Bbb    -0.0013    -0.696    -0.248    -0.232 -0.4976 -0.5954  0.6308
              Bcc     0.0028     1.468     0.524     0.490 -0.4972  0.7916  0.3551
 
              Baa    -0.0022    -0.299    -0.107    -0.100  0.0250  0.2881  0.9573
    42 C(13)  Bbb    -0.0020    -0.269    -0.096    -0.090  0.9209  0.3659 -0.1342
              Bcc     0.0042     0.568     0.203     0.190 -0.3890  0.8849 -0.2561
 
              Baa    -0.0006    -0.086    -0.031    -0.029 -0.0826 -0.0400  0.9958
    43 C(13)  Bbb    -0.0006    -0.078    -0.028    -0.026  0.8858  0.4549  0.0918
              Bcc     0.0012     0.164     0.059     0.055 -0.4566  0.8897 -0.0021
 
              Baa    -0.0010    -0.527    -0.188    -0.176  0.7180  0.6955 -0.0283
    44 H(1)   Bbb    -0.0009    -0.473    -0.169    -0.158 -0.1539  0.1983  0.9680
              Bcc     0.0019     1.000     0.357     0.334 -0.6788  0.6906 -0.2494
 
              Baa    -0.0016    -0.062    -0.022    -0.021  0.5658  0.6941 -0.4451
    45 N(14)  Bbb    -0.0005    -0.018    -0.007    -0.006  0.1514  0.4432  0.8835
              Bcc     0.0021     0.080     0.029     0.027  0.8105 -0.5673  0.1457
 
              Baa    -0.0019    -0.072    -0.026    -0.024  0.8672  0.1911  0.4599
    46 N(14)  Bbb    -0.0017    -0.064    -0.023    -0.021 -0.4882  0.1441  0.8607
              Bcc     0.0035     0.136     0.049     0.045 -0.0982  0.9709 -0.2182
 
              Baa    -0.0012    -0.155    -0.055    -0.052  0.8668 -0.0500  0.4961
    47 C(13)  Bbb    -0.0008    -0.109    -0.039    -0.036 -0.4986 -0.0924  0.8619
              Bcc     0.0020     0.264     0.094     0.088 -0.0028  0.9945  0.1050
 
              Baa    -0.0011    -0.598    -0.213    -0.199  0.6285 -0.1415  0.7648
    48 H(1)   Bbb    -0.0010    -0.516    -0.184    -0.172  0.7673  0.2739 -0.5799
              Bcc     0.0021     1.114     0.398     0.372 -0.1274  0.9513  0.2807
 
              Baa    -0.0006    -0.299    -0.107    -0.100  0.4911 -0.0313  0.8705
    49 H(1)   Bbb    -0.0005    -0.281    -0.100    -0.094  0.8680  0.1018 -0.4860
              Bcc     0.0011     0.580     0.207     0.193 -0.0734  0.9943  0.0772
 
              Baa    -0.0010    -0.522    -0.186    -0.174  0.4174 -0.2162  0.8826
    50 H(1)   Bbb    -0.0009    -0.463    -0.165    -0.155  0.8976 -0.0531 -0.4375
              Bcc     0.0018     0.985     0.352     0.329  0.1414  0.9749  0.1719
 
              Baa    -0.0005    -0.248    -0.088    -0.083  0.6198  0.4000  0.6751
    51 H(1)   Bbb    -0.0004    -0.229    -0.082    -0.077 -0.6628 -0.1937  0.7233
              Bcc     0.0009     0.477     0.170     0.159 -0.4201  0.8958 -0.1451
 
              Baa    -0.0005    -0.279    -0.100    -0.093  0.6601  0.2114  0.7208
    52 H(1)   Bbb    -0.0005    -0.270    -0.096    -0.090 -0.6263 -0.3751  0.6835
              Bcc     0.0010     0.549     0.196     0.183 -0.4148  0.9026  0.1152
 
              Baa    -0.0004    -0.049    -0.018    -0.016  0.6959  0.5839  0.4180
    53 C(13)  Bbb    -0.0003    -0.044    -0.016    -0.015 -0.3325 -0.2539  0.9083
              Bcc     0.0007     0.094     0.033     0.031 -0.6365  0.7711 -0.0175
 
              Baa    -0.0016    -0.218    -0.078    -0.073  0.7788  0.0837  0.6216
    54 C(13)  Bbb    -0.0014    -0.184    -0.066    -0.061 -0.6128  0.3131  0.7256
              Bcc     0.0030     0.402     0.144     0.134  0.1339  0.9460 -0.2952
 
              Baa    -0.0023    -0.304    -0.109    -0.101  0.9269  0.1624  0.3384
    55 C(13)  Bbb    -0.0018    -0.247    -0.088    -0.082 -0.3714  0.5281  0.7637
              Bcc     0.0041     0.551     0.197     0.184  0.0547  0.8335 -0.5498
 
              Baa    -0.0004    -0.203    -0.072    -0.068  0.5936  0.5028  0.6284
    56 H(1)   Bbb    -0.0004    -0.193    -0.069    -0.064 -0.3921 -0.5012  0.7714
              Bcc     0.0007     0.395     0.141     0.132 -0.7028  0.7043  0.1004
 
              Baa    -0.0003    -0.177    -0.063    -0.059  0.6861  0.7085  0.1653
    57 H(1)   Bbb    -0.0003    -0.175    -0.062    -0.058 -0.2099 -0.0248  0.9774
              Bcc     0.0007     0.352     0.126     0.117 -0.6966  0.7053 -0.1317
 
              Baa    -0.0002    -0.029    -0.010    -0.010  0.5894  0.4005  0.7016
    58 C(13)  Bbb    -0.0002    -0.028    -0.010    -0.009 -0.5646 -0.4169  0.7123
              Bcc     0.0004     0.056     0.020     0.019 -0.5778  0.8159  0.0196
 
              Baa    -0.0012    -0.166    -0.059    -0.055  0.2798  0.1763  0.9437
    59 C(13)  Bbb    -0.0010    -0.131    -0.047    -0.044  0.8909 -0.4139 -0.1869
              Bcc     0.0022     0.296     0.106     0.099  0.3576  0.8931 -0.2729
 
              Baa    -0.0018    -0.237    -0.085    -0.079 -0.4014  0.7750  0.4882
    60 C(13)  Bbb    -0.0017    -0.233    -0.083    -0.078  0.9057  0.2567  0.3372
              Bcc     0.0035     0.470     0.168     0.157 -0.1360 -0.5775  0.8050
 
              Baa    -0.0002    -0.109    -0.039    -0.036  0.6300  0.2760  0.7259
    61 H(1)   Bbb    -0.0002    -0.106    -0.038    -0.035 -0.5816 -0.4518  0.6765
              Bcc     0.0004     0.215     0.077     0.072 -0.5147  0.8483  0.1241
 
              Baa    -0.0002    -0.087    -0.031    -0.029  0.6423  0.5184  0.5645
    62 H(1)   Bbb    -0.0002    -0.086    -0.031    -0.029 -0.4181 -0.3803  0.8250
              Bcc     0.0003     0.174     0.062     0.058 -0.6423  0.7659  0.0275
 
              Baa    -0.0002    -0.102    -0.036    -0.034  0.5981  0.4194  0.6830
    63 H(1)   Bbb    -0.0002    -0.100    -0.036    -0.033 -0.6121 -0.3111  0.7270
              Bcc     0.0004     0.201     0.072     0.067 -0.5173  0.8529 -0.0707
 
              Baa    -0.0011    -0.141    -0.050    -0.047  0.7978 -0.3865  0.4627
    64 C(13)  Bbb    -0.0007    -0.097    -0.035    -0.032 -0.1533  0.6123  0.7757
              Bcc     0.0018     0.238     0.085     0.079  0.5831  0.6897 -0.4292
 
              Baa    -0.0008    -0.438    -0.156    -0.146  0.0960  0.1354  0.9861
    65 H(1)   Bbb    -0.0007    -0.383    -0.137    -0.128  0.9209 -0.3882 -0.0364
              Bcc     0.0015     0.821     0.293     0.274  0.3779  0.9116 -0.1619
 
              Baa    -0.0013    -0.168    -0.060    -0.056  0.8435 -0.5049  0.1833
    66 C(13)  Bbb    -0.0009    -0.122    -0.043    -0.041  0.2427  0.6626  0.7086
              Bcc     0.0022     0.290     0.103     0.097 -0.4792 -0.5532  0.6814
 
              Baa    -0.0016    -0.865    -0.309    -0.289  0.8310  0.4933  0.2570
    67 H(1)   Bbb    -0.0016    -0.845    -0.301    -0.282 -0.5561  0.7434  0.3716
              Bcc     0.0032     1.710     0.610     0.570 -0.0078 -0.4517  0.8921
 
              Baa    -0.0007    -0.366    -0.130    -0.122  0.8285 -0.5172  0.2145
    68 H(1)   Bbb    -0.0006    -0.341    -0.122    -0.114  0.0916  0.5032  0.8593
              Bcc     0.0013     0.707     0.252     0.236  0.5524  0.6923 -0.4643
 
              Baa    -0.0009    -0.481    -0.172    -0.160 -0.4418  0.8525  0.2793
    69 H(1)   Bbb    -0.0008    -0.436    -0.155    -0.145  0.7836  0.2153  0.5827
              Bcc     0.0017     0.917     0.327     0.306 -0.4367 -0.4763  0.7632
 

 ---------------------------------------------------------------------------------

 Unable to Open any file for archive entry.
 1\1\GINC-CLUSTER\SP\UM062X\def2TZVP\C26H33N4O4S2(2)\KJIANG\21-Nov-2025
 \0\\# scrf=(solvent=n,n-dimethylformamide) def2tzvp m062x geom=allchec
 k\\Title Card Required\\0,2\C,0,4.7990148596,-2.4381235424,0.528624761
 8\C,0,4.0762061071,-1.2380623243,0.5546336492\C,0,3.1825959564,-0.9753
 743476,1.6132245564\C,0,2.9783863321,-1.8737624165,2.6659893133\C,0,3.
 7039409783,-3.0526534975,2.6186290277\C,0,4.6010811069,-3.3321124467,1
 .5657124041\H,0,5.4859732864,-2.6423773079,-0.2855670677\H,0,2.2879793
 635,-1.6617941015,3.4764603748\H,0,3.5795925046,-3.7823511772,3.412361
 579\H,0,5.1447108256,-4.2710357711,1.575091102\N,0,4.0589575748,-0.196
 9233126,-0.3526026258\N,0,2.6342050001,0.2583730137,1.337962632\C,0,1.
 6976242965,0.9665321634,2.2024938631\H,0,1.7316086611,2.0307232895,1.9
 713962695\H,0,0.6780744776,0.5949367867,2.0666538674\H,0,2.0132122542,
 0.8228691931,3.2384374917\C,0,3.205858441,0.6467226896,0.1507345932\S,
 0,2.7461741991,2.1711841328,-0.6789412332\O,0,3.5201178754,2.267853252
 4,-1.9044318338\O,0,2.806079163,3.2335254897,0.3293387551\C,0,1.015955
 8578,1.8766960085,-1.0641563299\C,0,0.2838116135,3.2028058536,-1.31331
 15599\H,0,0.5715217294,1.3473963804,-0.2165317796\H,0,1.0022762484,1.2
 305537053,-1.9435889123\C,0,-1.1886941077,2.976721851,-1.4263993952\H,
 0,0.5029012136,3.8935356038,-0.4923189193\H,0,0.6763314607,3.652394661
 1,-2.2341961354\C,0,-2.1024430501,3.3571140261,-0.3311943719\H,0,-1.57
 17287008,2.3886510235,-2.2554929879\H,0,-3.083946612,3.7098060335,-0.6
 696904816\H,0,-1.6728107842,4.1160465041,0.3312221394\S,0,-2.494941446
 5,1.992567543,0.8336580638\C,0,-3.8198811188,1.0910604938,0.0213983836
 \O,0,-1.3334734665,1.0919337962,0.9172908001\O,0,-3.0205553722,2.58579
 02605,2.0624300078\C,0,-3.9860122789,-0.2914633512,0.6723069779\H,0,-3
 .5431485012,1.0041990704,-1.0357493001\H,0,-4.706602417,1.7210491492,0
 .1225133026\H,0,-5.0241396894,-0.4095907789,0.9923421475\C,0,-3.631294
 5375,-1.4362582717,-0.2962374898\H,0,-3.3753720384,-0.3664959734,1.580
 0553375\C,0,-2.2991370356,-1.2445285779,-0.9725139691\C,0,-3.795567165
 9,-2.8178986416,0.3592161408\H,0,-4.3397216062,-1.3768686942,-1.132011
 9982\N,0,-2.2112530243,-0.7500927978,-2.1862555627\N,0,-1.080639997,-1
 .5994213215,-0.4441712293\C,0,-0.7630510579,-2.0012694815,0.9120155859
 \H,0,-1.3829904517,-1.4446686963,1.6171014362\H,0,-0.8950038718,-3.077
 0687608,1.0572659753\H,0,0.2819653872,-1.7446903847,1.1071438697\H,0,-
 3.3046617488,-3.5718120129,-0.2699019537\H,0,-3.2840658317,-2.83925035
 6,1.330302498\C,0,-5.2568065127,-3.2223250478,0.5626965541\C,0,-0.1378
 647953,-1.3176535111,-1.412913237\C,0,-0.8632860092,-0.7811405878,-2.4
 936095118\H,0,-5.7613799337,-2.498344228,1.2136505183\H,0,-5.775662256
 4,-3.1885696452,-0.4034435818\C,0,-5.3833581512,-4.6179499199,1.168554
 7561\C,0,1.2472099447,-1.4844386423,-1.447717575\C,0,-0.1934781768,-0.
 3961666013,-3.661069684\H,0,-4.8917899751,-4.6660864299,2.1458648132\H
 ,0,-6.4307068973,-4.8996891814,1.3059511032\H,0,-4.9149127237,-5.36753
 6739,0.5225315707\C,0,1.895873641,-1.088735534,-2.6102832671\H,0,1.801
 8085128,-1.9094879969,-0.6148892458\C,0,1.1846542929,-0.5560685848,-3.
 7040382806\H,0,-0.7491773639,0.0086717118,-4.5010525269\H,0,2.97671858
 59,-1.1690324339,-2.6614156706\H,0,1.7333099559,-0.2577822576,-4.59134
 15046\\Version=ES64L-G16RevC.02\State=2-A\HF=-2326.8287681\S2=0.756738
 \S2-1=0.\S2A=0.750039\RMSD=2.966e-09\Dipole=-3.5812954,-1.878074,1.558
 9707\Quadrupole=-4.5600945,5.4313057,-0.8712112,-16.1899099,11.8552219
 ,-14.5046633\PG=C01 [X(C26H33N4O4S2)]\\@
 The archive entry for this job was punched.


 THE WHOLE OF SCIENCE IS NOTHING MORE THAN A REFINEMENT OF EVERYDAY THINKING.
                                                              -- A. EINSTEIN
 Job cpu time:       0 days 15 hours  9 minutes  2.1 seconds.
 Elapsed time:       0 days  0 hours 10 minutes 50.3 seconds.
 File lengths (MBytes):  RWF=   1928 Int=      0 D2E=      0 Chk=    153 Scr=      1
 Normal termination of Gaussian 16 at Fri Nov 21 18:31:59 2025.
