 Entering Gaussian System, Link 0=g16
 Initial command:
 /public/software/g16/l1.exe "/tmp/Gau-10250.inp" -scrdir="/tmp/"
 Entering Link 1 = /public/software/g16/l1.exe PID=     10251.
  
 Copyright (c) 1988-2021, Gaussian, Inc.  All Rights Reserved.
  
 This is part of the Gaussian(R) 16 program.  It is based on
 the Gaussian(R) 09 system (copyright 2009, Gaussian, Inc.),
 the Gaussian(R) 03 system (copyright 2003, Gaussian, Inc.),
 the Gaussian(R) 98 system (copyright 1998, Gaussian, Inc.),
 the Gaussian(R) 94 system (copyright 1995, Gaussian, Inc.),
 the Gaussian 92(TM) system (copyright 1992, Gaussian, Inc.),
 the Gaussian 90(TM) system (copyright 1990, Gaussian, Inc.),
 the Gaussian 88(TM) system (copyright 1988, Gaussian, Inc.),
 the Gaussian 86(TM) system (copyright 1986, Carnegie Mellon
 University), and the Gaussian 82(TM) system (copyright 1983,
 Carnegie Mellon University). Gaussian is a federally registered
 trademark of Gaussian, Inc.
  
 This software contains proprietary and confidential information,
 including trade secrets, belonging to Gaussian, Inc.
  
 This software is provided under written license and may be
 used, copied, transmitted, or stored only in accord with that
 written license.
  
 The following legend is applicable only to US Government
 contracts under FAR:
  
                    RESTRICTED RIGHTS LEGEND
  
 Use, reproduction and disclosure by the US Government is
 subject to restrictions as set forth in subparagraphs (a)
 and (c) of the Commercial Computer Software - Restricted
 Rights clause in FAR 52.227-19.
  
 Gaussian, Inc.
 340 Quinnipiac St., Bldg. 40, Wallingford CT 06492
  
  
 ---------------------------------------------------------------
 Warning -- This program may not be used in any manner that
 competes with the business of Gaussian, Inc. or will provide
 assistance to any competitor of Gaussian, Inc.  The licensee
 of this program is prohibited from giving any competitor of
 Gaussian, Inc. access to this program.  By using this program,
 the user acknowledges that Gaussian, Inc. is engaged in the
 business of creating and licensing software in the field of
 computational chemistry and represents and warrants to the
 licensee that it is not a competitor of Gaussian, Inc. and that
 it will not use this program in any manner prohibited above.
 ---------------------------------------------------------------
  

 Cite this work as:
 Gaussian 16, Revision C.02,
 M. J. Frisch, G. W. Trucks, H. B. Schlegel, G. E. Scuseria, 
 M. A. Robb, J. R. Cheeseman, G. Scalmani, V. Barone, 
 G. A. Petersson, H. Nakatsuji, X. Li, M. Caricato, A. V. Marenich, 
 J. Bloino, B. G. Janesko, R. Gomperts, B. Mennucci, H. P. Hratchian, 
 J. V. Ortiz, A. F. Izmaylov, J. L. Sonnenberg, D. Williams-Young, 
 F. Ding, F. Lipparini, F. Egidi, J. Goings, B. Peng, A. Petrone, 
 T. Henderson, D. Ranasinghe, V. G. Zakrzewski, J. Gao, N. Rega, 
 G. Zheng, W. Liang, M. Hada, M. Ehara, K. Toyota, R. Fukuda, 
 J. Hasegawa, M. Ishida, T. Nakajima, Y. Honda, O. Kitao, H. Nakai, 
 T. Vreven, K. Throssell, J. A. Montgomery, Jr., J. E. Peralta, 
 F. Ogliaro, M. J. Bearpark, J. J. Heyd, E. N. Brothers, K. N. Kudin, 
 V. N. Staroverov, T. A. Keith, R. Kobayashi, J. Normand, 
 K. Raghavachari, A. P. Rendell, J. C. Burant, S. S. Iyengar, 
 J. Tomasi, M. Cossi, J. M. Millam, M. Klene, C. Adamo, R. Cammi, 
 J. W. Ochterski, R. L. Martin, K. Morokuma, O. Farkas, 
 J. B. Foresman, and D. J. Fox, Gaussian, Inc., Wallingford CT, 2019.
 
 ******************************************
 Gaussian 16:  ES64L-G16RevC.02  7-Dec-2021
                21-Nov-2025 
 ******************************************
 %nprocshared=96
 Will use up to   96 processors via shared memory.
 %mem=10GB
 %chk=IM6.chk
 -------------------------------------------------------------------
 # scrf=(solvent=n,n-dimethylformamide) def2tzvp m062x geom=allcheck
 -------------------------------------------------------------------
 1/29=7,38=1,172=1/1;
 2/12=2,40=1/2;
 3/5=44,7=101,11=2,14=-4,25=1,30=1,70=2201,72=148,74=-55/1,2,3;
 4//1;
 5/5=2,38=5,53=148/2;
 6/7=2,8=2,9=2,10=2,28=1/1;
 99/5=1,9=1/99;
 Structure from the checkpoint file:  "IM6.chk"
 -------------------
 Title Card Required
 -------------------
 Charge =  0 Multiplicity = 2
 Redundant internal coordinates found in file.  (old form).
 C,0,-5.045396665,-2.7571059172,2.0358093672
 C,0,-4.7180429653,-1.6569999266,1.2367547845
 C,0,-4.6296523795,-0.3741828249,1.8077572065
 C,0,-4.8708084913,-0.1386521372,3.1621963361
 C,0,-5.1946489024,-1.2428267045,3.9368374884
 C,0,-5.279773001,-2.5342690406,3.3829178572
 H,0,-5.1111103919,-3.747343468,1.5977528936
 H,0,-4.8163804206,0.8543541767,3.5973903898
 H,0,-5.3898020653,-1.1065403783,4.99569245
 H,0,-5.5364862362,-3.3681532019,4.0280955966
 N,0,-4.4441996857,-1.5940003274,-0.1178302277
 N,0,-4.2772956995,0.4639127146,0.7635708402
 C,0,-4.134160673,1.9008647017,0.8793098259
 H,0,-5.0557570771,2.422187678,0.5985254037
 H,0,-3.892356039,2.1415935013,1.9160663199
 H,0,-3.3173123435,2.2579149675,0.2507328438
 C,0,-4.2019936805,-0.3316002166,-0.3637528399
 S,0,0.2660493009,-0.6392687043,-1.7496668135
 O,0,0.8931738629,-1.958382466,-1.6769377313
 O,0,0.492540393,0.2059098271,-2.9284891955
 C,0,-1.5038472496,-0.852643887,-1.535503274
 C,0,-2.3027026677,0.4103114648,-1.8364690508
 H,0,-1.6613537844,-1.2375348755,-0.5226687618
 H,0,-1.7530220723,-1.6618595508,-2.230932817
 C,0,-3.8181684464,0.1575185868,-1.7339786035
 H,0,-2.0121848594,1.2173256629,-1.1513594176
 H,0,-2.0579753238,0.7527094013,-2.8471432291
 C,0,-4.6300276652,1.3613527902,-2.2366795983
 H,0,-4.0548895549,-0.6951595563,-2.3817418287
 H,0,-4.300030141,2.2861048909,-1.7463239099
 H,0,-4.4023794448,1.4939188615,-3.3021747377
 C,0,-6.1383847353,1.1942593942,-2.0576739966
 C,0,-6.9193659011,2.372483593,-2.6331487294
 H,0,-6.3734247329,1.0787844947,-0.9914467774
 H,0,-6.4554472213,0.2600536266,-2.5374248346
 H,0,-7.9960549786,2.2424889307,-2.495868541
 H,0,-6.6295052227,3.3096904416,-2.1452274077
 H,0,-6.7277794471,2.4842388263,-3.705290951
 C,0,0.7817076363,0.32273844,-0.3165661914
 H,0,0.1061486131,1.1823508465,-0.2582854803
 C,0,2.2362176732,0.7981264916,-0.468957571
 H,0,2.361615159,1.2059198396,-1.4784763077
 C,0,2.4728465962,1.925512336,0.5503796735
 H,0,2.251717876,1.5632001682,1.5579990013
 H,0,1.7995938112,2.7571724731,0.3159388444
 H,0,0.6697884743,-0.3060132468,0.5715160758
 C,0,3.9164696074,2.4192913916,0.518805798
 H,0,4.5979098776,1.6924192188,0.9646064426
 H,0,4.2487662052,2.6994937823,-0.4843633502
 C,0,3.2018148673,-0.3328844936,-0.2294240959
 C,0,4.420075223,-1.7505711847,0.8026692481
 C,0,4.5976722685,-1.9953551942,-0.5716306444
 C,0,5.1022368001,-2.5298479936,1.7433458793
 C,0,5.4305075471,-3.0049754503,-1.0566476889
 C,0,5.9337185041,-3.5325343883,1.271841736
 H,0,4.9712580573,-2.3451522386,2.8043036664
 C,0,6.0942687009,-3.7676779848,-0.1080734083
 H,0,5.5498256206,-3.1890937225,-2.1197040326
 H,0,6.4737671377,-4.1556243125,1.977504354
 H,0,6.7517362833,-4.5667712248,-0.435365794
 N,0,3.5415074087,-0.6987858384,0.9820824701
 N,0,3.8129715602,-1.062013567,-1.2172941337
 C,0,3.6329169323,-1.0182114,-2.6561698917
 H,0,4.6025359569,-0.8720582266,-3.1408544482
 H,0,3.1787690943,-1.9523260516,-2.9948962815
 H,0,2.9614713314,-0.2052912837,-2.9314221921
 S,0,4.0398297764,3.9487901444,1.516758305
 O,0,3.6404307242,3.5785387018,2.8866661863
 O,0,3.3069322853,4.9847086186,0.7636855018
 Recover connectivity data from disk.
                           ----------------------------
                           !    Current Parameters    !
                           ! (Angstroms and Degrees)  !
 --------------------------                            --------------------------
 ! Name  Definition              Value                                          !
 --------------------------------------------------------------------------------
 ! R1    R(1,2)                  1.3985                                         !
 ! R2    R(1,6)                  1.3854                                         !
 ! R3    R(1,7)                  1.0848                                         !
 ! R4    R(2,3)                  1.4069                                         !
 ! R5    R(2,11)                 1.3834                                         !
 ! R6    R(3,4)                  1.3958                                         !
 ! R7    R(3,12)                 1.3845                                         !
 ! R8    R(4,5)                  1.3871                                         !
 ! R9    R(4,8)                  1.0855                                         !
 ! R10   R(5,6)                  1.4078                                         !
 ! R11   R(5,9)                  1.0853                                         !
 ! R12   R(6,10)                 1.0851                                         !
 ! R13   R(11,17)                1.3087                                         !
 ! R14   R(12,13)                1.4487                                         !
 ! R15   R(12,17)                1.3818                                         !
 ! R16   R(13,14)                1.0954                                         !
 ! R17   R(13,15)                1.0915                                         !
 ! R18   R(13,16)                1.0908                                         !
 ! R19   R(17,25)                1.5047                                         !
 ! R20   R(18,19)                1.4624                                         !
 ! R21   R(18,20)                1.4681                                         !
 ! R22   R(18,21)                1.7955                                         !
 ! R23   R(18,39)                1.8014                                         !
 ! R24   R(21,22)                1.5244                                         !
 ! R25   R(21,23)                1.0949                                         !
 ! R26   R(21,24)                1.0957                                         !
 ! R27   R(22,25)                1.5398                                         !
 ! R28   R(22,26)                1.0977                                         !
 ! R29   R(22,27)                1.0948                                         !
 ! R30   R(25,28)                1.5366                                         !
 ! R31   R(25,29)                1.0967                                         !
 ! R32   R(28,30)                1.0975                                         !
 ! R33   R(28,31)                1.0976                                         !
 ! R34   R(28,32)                1.5281                                         !
 ! R35   R(32,33)                1.5262                                         !
 ! R36   R(32,34)                1.0979                                         !
 ! R37   R(32,35)                1.097                                          !
 ! R38   R(33,36)                1.0932                                         !
 ! R39   R(33,37)                1.0956                                         !
 ! R40   R(33,38)                1.0948                                         !
 ! R41   R(39,40)                1.0949                                         !
 ! R42   R(39,41)                1.5378                                         !
 ! R43   R(39,46)                1.0939                                         !
 ! R44   R(41,42)                1.096                                          !
 ! R45   R(41,43)                1.5382                                         !
 ! R46   R(41,50)                1.5063                                         !
 ! R47   R(43,44)                1.0934                                         !
 ! R48   R(43,45)                1.0954                                         !
 ! R49   R(43,47)                1.5261                                         !
 ! R50   R(47,48)                1.0915                                         !
 ! R51   R(47,49)                1.0933                                         !
 ! R52   R(47,67)                1.8304                                         !
 ! R53   R(50,61)                1.3104                                         !
 ! R54   R(50,62)                1.3715                                         !
 ! R55   R(51,52)                1.4072                                         !
 ! R56   R(51,53)                1.3991                                         !
 ! R57   R(51,61)                1.3821                                         !
 ! R58   R(52,54)                1.3958                                         !
 ! R59   R(52,62)                1.3798                                         !
 ! R60   R(53,55)                1.3853                                         !
 ! R61   R(53,56)                1.0848                                         !
 ! R62   R(54,57)                1.3864                                         !
 ! R63   R(54,58)                1.0855                                         !
 ! R64   R(55,57)                1.409                                          !
 ! R65   R(55,59)                1.0853                                         !
 ! R66   R(57,60)                1.0853                                         !
 ! R67   R(62,63)                1.4508                                         !
 ! R68   R(63,64)                1.0938                                         !
 ! R69   R(63,65)                1.0925                                         !
 ! R70   R(63,66)                1.0897                                         !
 ! R71   R(67,68)                1.4742                                         !
 ! R72   R(67,69)                1.4756                                         !
 ! A1    A(2,1,6)              117.9462                                         !
 ! A2    A(2,1,7)              120.0998                                         !
 ! A3    A(6,1,7)              121.9539                                         !
 ! A4    A(1,2,3)              120.0029                                         !
 ! A5    A(1,2,11)             129.9111                                         !
 ! A6    A(3,2,11)             110.086                                          !
 ! A7    A(2,3,4)              122.4687                                         !
 ! A8    A(2,3,12)             105.179                                          !
 ! A9    A(4,3,12)             132.3522                                         !
 ! A10   A(3,4,5)              116.6108                                         !
 ! A11   A(3,4,8)              122.3255                                         !
 ! A12   A(5,4,8)              121.0627                                         !
 ! A13   A(4,5,6)              121.6418                                         !
 ! A14   A(4,5,9)              119.135                                          !
 ! A15   A(6,5,9)              119.223                                          !
 ! A16   A(1,6,5)              121.3268                                         !
 ! A17   A(1,6,10)             119.6401                                         !
 ! A18   A(5,6,10)             119.033                                          !
 ! A19   A(2,11,17)            105.3403                                         !
 ! A20   A(3,12,13)            124.4245                                         !
 ! A21   A(3,12,17)            106.3001                                         !
 ! A22   A(13,12,17)           129.1118                                         !
 ! A23   A(12,13,14)           111.62                                           !
 ! A24   A(12,13,15)           108.4542                                         !
 ! A25   A(12,13,16)           110.6481                                         !
 ! A26   A(14,13,15)           108.9595                                         !
 ! A27   A(14,13,16)           109.0586                                         !
 ! A28   A(15,13,16)           108.0156                                         !
 ! A29   A(11,17,12)           113.075                                          !
 ! A30   A(11,17,25)           122.1325                                         !
 ! A31   A(12,17,25)           124.7288                                         !
 ! A32   A(19,18,20)           119.5425                                         !
 ! A33   A(19,18,21)           108.0341                                         !
 ! A34   A(19,18,39)           108.6256                                         !
 ! A35   A(20,18,21)           108.4372                                         !
 ! A36   A(20,18,39)           106.6898                                         !
 ! A37   A(21,18,39)           104.5211                                         !
 ! A38   A(18,21,22)           113.2385                                         !
 ! A39   A(18,21,23)           107.0925                                         !
 ! A40   A(18,21,24)           103.6641                                         !
 ! A41   A(22,21,23)           113.4839                                         !
 ! A42   A(22,21,24)           111.5549                                         !
 ! A43   A(23,21,24)           107.145                                          !
 ! A44   A(21,22,25)           111.5062                                         !
 ! A45   A(21,22,26)           110.3139                                         !
 ! A46   A(21,22,27)           108.9188                                         !
 ! A47   A(25,22,26)           109.8533                                         !
 ! A48   A(25,22,27)           109.4382                                         !
 ! A49   A(26,22,27)           106.6826                                         !
 ! A50   A(17,25,22)           111.4094                                         !
 ! A51   A(17,25,28)           114.697                                          !
 ! A52   A(17,25,29)           103.3016                                         !
 ! A53   A(22,25,28)           111.6913                                         !
 ! A54   A(22,25,29)           107.5038                                         !
 ! A55   A(28,25,29)           107.5693                                         !
 ! A56   A(25,28,30)           110.7995                                         !
 ! A57   A(25,28,31)           107.6159                                         !
 ! A58   A(25,28,32)           113.4244                                         !
 ! A59   A(30,28,31)           105.6404                                         !
 ! A60   A(30,28,32)           109.6693                                         !
 ! A61   A(31,28,32)           109.3692                                         !
 ! A62   A(28,32,33)           112.118                                          !
 ! A63   A(28,32,34)           109.6683                                         !
 ! A64   A(28,32,35)           109.0976                                         !
 ! A65   A(33,32,34)           109.7446                                         !
 ! A66   A(33,32,35)           110.1591                                         !
 ! A67   A(34,32,35)           105.8585                                         !
 ! A68   A(32,33,36)           111.3982                                         !
 ! A69   A(32,33,37)           110.92                                           !
 ! A70   A(32,33,38)           111.008                                          !
 ! A71   A(36,33,37)           107.8403                                         !
 ! A72   A(36,33,38)           107.9067                                         !
 ! A73   A(37,33,38)           107.6069                                         !
 ! A74   A(18,39,40)           106.5592                                         !
 ! A75   A(18,39,41)           110.9159                                         !
 ! A76   A(18,39,46)           108.037                                          !
 ! A77   A(40,39,41)           110.2534                                         !
 ! A78   A(40,39,46)           110.1785                                         !
 ! A79   A(41,39,46)           110.7885                                         !
 ! A80   A(39,41,42)           108.3322                                         !
 ! A81   A(39,41,43)           107.8429                                         !
 ! A82   A(39,41,50)           111.0048                                         !
 ! A83   A(42,41,43)           108.6689                                         !
 ! A84   A(42,41,50)           110.6411                                         !
 ! A85   A(43,41,50)           110.2628                                         !
 ! A86   A(41,43,44)           109.6775                                         !
 ! A87   A(41,43,45)           108.6679                                         !
 ! A88   A(41,43,47)           111.6517                                         !
 ! A89   A(44,43,45)           108.9366                                         !
 ! A90   A(44,43,47)           108.5182                                         !
 ! A91   A(45,43,47)           109.3495                                         !
 ! A92   A(43,47,48)           111.5094                                         !
 ! A93   A(43,47,49)           112.9193                                         !
 ! A94   A(43,47,67)           108.8348                                         !
 ! A95   A(48,47,49)           110.8346                                         !
 ! A96   A(48,47,67)           106.9594                                         !
 ! A97   A(49,47,67)           105.4037                                         !
 ! A98   A(41,50,61)           121.5253                                         !
 ! A99   A(41,50,62)           124.7703                                         !
 ! A100  A(61,50,62)           113.7019                                         !
 ! A101  A(52,51,53)           119.8815                                         !
 ! A102  A(52,51,61)           109.8388                                         !
 ! A103  A(53,51,61)           130.2786                                         !
 ! A104  A(51,52,54)           122.7179                                         !
 ! A105  A(51,52,62)           105.5196                                         !
 ! A106  A(54,52,62)           131.7621                                         !
 ! A107  A(51,53,55)           117.8368                                         !
 ! A108  A(51,53,56)           120.2545                                         !
 ! A109  A(55,53,56)           121.9083                                         !
 ! A110  A(52,54,57)           116.478                                          !
 ! A111  A(52,54,58)           121.911                                          !
 ! A112  A(57,54,58)           121.6102                                         !
 ! A113  A(53,55,57)           121.502                                          !
 ! A114  A(53,55,59)           119.5327                                         !
 ! A115  A(57,55,59)           118.9651                                         !
 ! A116  A(54,57,55)           121.5822                                         !
 ! A117  A(54,57,60)           119.2582                                         !
 ! A118  A(55,57,60)           119.1595                                         !
 ! A119  A(50,61,51)           104.9079                                         !
 ! A120  A(50,62,52)           106.0209                                         !
 ! A121  A(50,62,63)           130.0178                                         !
 ! A122  A(52,62,63)           123.7193                                         !
 ! A123  A(62,63,64)           109.4813                                         !
 ! A124  A(62,63,65)           109.4682                                         !
 ! A125  A(62,63,66)           110.4582                                         !
 ! A126  A(64,63,65)           110.2035                                         !
 ! A127  A(64,63,66)           109.5484                                         !
 ! A128  A(65,63,66)           107.6616                                         !
 ! A129  A(47,67,68)           106.1712                                         !
 ! A130  A(47,67,69)           105.9559                                         !
 ! A131  A(68,67,69)           121.0646                                         !
 ! D1    D(6,1,2,3)              0.2791                                         !
 ! D2    D(6,1,2,11)          -179.7011                                         !
 ! D3    D(7,1,2,3)           -179.8195                                         !
 ! D4    D(7,1,2,11)             0.2003                                         !
 ! D5    D(2,1,6,5)              0.0864                                         !
 ! D6    D(2,1,6,10)           179.9582                                         !
 ! D7    D(7,1,6,5)           -179.813                                          !
 ! D8    D(7,1,6,10)             0.0588                                         !
 ! D9    D(1,2,3,4)             -0.6359                                         !
 ! D10   D(1,2,3,12)           179.2523                                         !
 ! D11   D(11,2,3,4)           179.3479                                         !
 ! D12   D(11,2,3,12)           -0.7639                                         !
 ! D13   D(1,2,11,17)          179.883                                          !
 ! D14   D(3,2,11,17)           -0.0987                                         !
 ! D15   D(2,3,4,5)              0.5824                                         !
 ! D16   D(2,3,4,8)           -179.0695                                         !
 ! D17   D(12,3,4,5)          -179.2715                                         !
 ! D18   D(12,3,4,8)             1.0765                                         !
 ! D19   D(2,3,12,13)          176.9951                                         !
 ! D20   D(2,3,12,17)            1.2793                                         !
 ! D21   D(4,3,12,13)           -3.1326                                         !
 ! D22   D(4,3,12,17)         -178.8483                                         !
 ! D23   D(3,4,5,6)             -0.2039                                         !
 ! D24   D(3,4,5,9)            179.9675                                         !
 ! D25   D(8,4,5,6)            179.4528                                         !
 ! D26   D(8,4,5,9)             -0.3758                                         !
 ! D27   D(4,5,6,1)             -0.1248                                         !
 ! D28   D(4,5,6,10)          -179.9973                                         !
 ! D29   D(9,5,6,1)            179.7037                                         !
 ! D30   D(9,5,6,10)            -0.1689                                         !
 ! D31   D(2,11,17,12)           0.9677                                         !
 ! D32   D(2,11,17,25)         178.1946                                         !
 ! D33   D(3,12,13,14)         -94.4124                                         !
 ! D34   D(3,12,13,15)          25.6333                                         !
 ! D35   D(3,12,13,16)         143.939                                          !
 ! D36   D(17,12,13,14)         80.2854                                         !
 ! D37   D(17,12,13,15)       -159.6689                                         !
 ! D38   D(17,12,13,16)        -41.3632                                         !
 ! D39   D(3,12,17,11)          -1.4673                                         !
 ! D40   D(3,12,17,25)        -178.6099                                         !
 ! D41   D(13,12,17,11)       -176.9122                                         !
 ! D42   D(13,12,17,25)          5.9452                                         !
 ! D43   D(11,17,25,22)       -101.6243                                         !
 ! D44   D(11,17,25,28)        130.2576                                         !
 ! D45   D(11,17,25,29)         13.5052                                         !
 ! D46   D(12,17,25,22)         75.2712                                         !
 ! D47   D(12,17,25,28)        -52.8469                                         !
 ! D48   D(12,17,25,29)       -169.5993                                         !
 ! D49   D(19,18,21,22)       -169.7218                                         !
 ! D50   D(19,18,21,23)         64.4221                                         !
 ! D51   D(19,18,21,24)        -48.6663                                         !
 ! D52   D(20,18,21,22)        -38.7914                                         !
 ! D53   D(20,18,21,23)       -164.6476                                         !
 ! D54   D(20,18,21,24)         82.264                                          !
 ! D55   D(39,18,21,22)         74.7284                                         !
 ! D56   D(39,18,21,23)        -51.1277                                         !
 ! D57   D(39,18,21,24)       -164.2161                                         !
 ! D58   D(19,18,39,40)       -165.4351                                         !
 ! D59   D(19,18,39,41)         74.5473                                         !
 ! D60   D(19,18,39,46)        -47.0566                                         !
 ! D61   D(20,18,39,40)         64.4551                                         !
 ! D62   D(20,18,39,41)        -55.5624                                         !
 ! D63   D(20,18,39,46)       -177.1664                                         !
 ! D64   D(21,18,39,40)        -50.299                                          !
 ! D65   D(21,18,39,41)       -170.3166                                         !
 ! D66   D(21,18,39,46)         68.0795                                         !
 ! D67   D(18,21,22,25)        176.1183                                         !
 ! D68   D(18,21,22,26)        -61.5308                                         !
 ! D69   D(18,21,22,27)         55.2429                                         !
 ! D70   D(23,21,22,25)        -61.5165                                         !
 ! D71   D(23,21,22,26)         60.8344                                         !
 ! D72   D(23,21,22,27)        177.6081                                         !
 ! D73   D(24,21,22,25)         59.6286                                         !
 ! D74   D(24,21,22,26)       -178.0205                                         !
 ! D75   D(24,21,22,27)        -61.2468                                         !
 ! D76   D(21,22,25,17)         58.7581                                         !
 ! D77   D(21,22,25,28)       -171.5283                                         !
 ! D78   D(21,22,25,29)        -53.748                                          !
 ! D79   D(26,22,25,17)        -63.8573                                         !
 ! D80   D(26,22,25,28)         65.8562                                         !
 ! D81   D(26,22,25,29)       -176.3634                                         !
 ! D82   D(27,22,25,17)        179.3295                                         !
 ! D83   D(27,22,25,28)        -50.957                                          !
 ! D84   D(27,22,25,29)         66.8234                                         !
 ! D85   D(17,25,28,30)         76.0579                                         !
 ! D86   D(17,25,28,31)       -168.9056                                         !
 ! D87   D(17,25,28,32)        -47.7883                                         !
 ! D88   D(22,25,28,30)        -51.918                                          !
 ! D89   D(22,25,28,31)         63.1185                                         !
 ! D90   D(22,25,28,32)       -175.7642                                         !
 ! D91   D(29,25,28,30)       -169.659                                          !
 ! D92   D(29,25,28,31)        -54.6225                                         !
 ! D93   D(29,25,28,32)         66.4948                                         !
 ! D94   D(25,28,32,33)       -176.9686                                         !
 ! D95   D(25,28,32,34)         60.8553                                         !
 ! D96   D(25,28,32,35)        -54.6662                                         !
 ! D97   D(30,28,32,33)         58.5711                                         !
 ! D98   D(30,28,32,34)        -63.605                                          !
 ! D99   D(30,28,32,35)       -179.1264                                         !
 ! D100  D(31,28,32,33)        -56.8421                                         !
 ! D101  D(31,28,32,34)       -179.0182                                         !
 ! D102  D(31,28,32,35)         65.4604                                         !
 ! D103  D(28,32,33,36)       -179.8092                                         !
 ! D104  D(28,32,33,37)        -59.6726                                         !
 ! D105  D(28,32,33,38)         59.9107                                         !
 ! D106  D(34,32,33,36)        -57.6765                                         !
 ! D107  D(34,32,33,37)         62.46                                           !
 ! D108  D(34,32,33,38)       -177.9567                                         !
 ! D109  D(35,32,33,36)         58.4942                                         !
 ! D110  D(35,32,33,37)        178.6307                                         !
 ! D111  D(35,32,33,38)        -61.786                                          !
 ! D112  D(18,39,41,42)         46.2096                                         !
 ! D113  D(18,39,41,43)        163.6554                                         !
 ! D114  D(18,39,41,50)        -75.4596                                         !
 ! D115  D(40,39,41,42)        -71.5808                                         !
 ! D116  D(40,39,41,43)         45.8649                                         !
 ! D117  D(40,39,41,50)        166.7499                                         !
 ! D118  D(46,39,41,42)        166.1862                                         !
 ! D119  D(46,39,41,43)        -76.3681                                         !
 ! D120  D(46,39,41,50)         44.5169                                         !
 ! D121  D(39,41,43,44)         56.9951                                         !
 ! D122  D(39,41,43,45)        -61.9917                                         !
 ! D123  D(39,41,43,47)        177.3179                                         !
 ! D124  D(42,41,43,44)        174.2229                                         !
 ! D125  D(42,41,43,45)         55.236                                          !
 ! D126  D(42,41,43,47)        -65.4543                                         !
 ! D127  D(50,41,43,44)        -64.3528                                         !
 ! D128  D(50,41,43,45)        176.6604                                         !
 ! D129  D(50,41,43,47)         55.97                                           !
 ! D130  D(39,41,50,61)        -81.3145                                         !
 ! D131  D(39,41,50,62)         99.3124                                         !
 ! D132  D(42,41,50,61)        158.3767                                         !
 ! D133  D(42,41,50,62)        -20.9964                                         !
 ! D134  D(43,41,50,61)         38.1325                                         !
 ! D135  D(43,41,50,62)       -141.2406                                         !
 ! D136  D(41,43,47,48)        -72.7334                                         !
 ! D137  D(41,43,47,49)         52.8364                                         !
 ! D138  D(41,43,47,67)        169.5111                                         !
 ! D139  D(44,43,47,48)         48.2664                                         !
 ! D140  D(44,43,47,49)        173.8363                                         !
 ! D141  D(44,43,47,67)        -69.489                                          !
 ! D142  D(45,43,47,48)        166.975                                          !
 ! D143  D(45,43,47,49)        -67.4552                                         !
 ! D144  D(45,43,47,67)         49.2195                                         !
 ! D145  D(43,47,67,68)         60.5666                                         !
 ! D146  D(43,47,67,69)        -69.3521                                         !
 ! D147  D(48,47,67,68)        -60.033                                          !
 ! D148  D(48,47,67,69)        170.0484                                         !
 ! D149  D(49,47,67,68)       -178.049                                          !
 ! D150  D(49,47,67,69)         52.0324                                         !
 ! D151  D(41,50,61,51)        179.6826                                         !
 ! D152  D(62,50,61,51)         -0.8798                                         !
 ! D153  D(41,50,62,52)       -179.4546                                         !
 ! D154  D(41,50,62,63)         -5.0503                                         !
 ! D155  D(61,50,62,52)          1.129                                          !
 ! D156  D(61,50,62,63)        175.5333                                         !
 ! D157  D(53,51,52,54)          0.5034                                         !
 ! D158  D(53,51,52,62)       -179.2852                                         !
 ! D159  D(61,51,52,54)       -179.8429                                         !
 ! D160  D(61,51,52,62)          0.3685                                         !
 ! D161  D(52,51,53,55)         -0.3316                                         !
 ! D162  D(52,51,53,56)        179.8837                                         !
 ! D163  D(61,51,53,55)       -179.9046                                         !
 ! D164  D(61,51,53,56)          0.3107                                         !
 ! D165  D(52,51,61,50)          0.2898                                         !
 ! D166  D(53,51,61,50)        179.8962                                         !
 ! D167  D(51,52,54,57)         -0.3246                                         !
 ! D168  D(51,52,54,58)        179.3461                                         !
 ! D169  D(62,52,54,57)        179.4024                                         !
 ! D170  D(62,52,54,58)         -0.927                                          !
 ! D171  D(51,52,62,50)         -0.8506                                         !
 ! D172  D(51,52,62,63)       -175.6997                                         !
 ! D173  D(54,52,62,50)        179.3878                                         !
 ! D174  D(54,52,62,63)          4.5388                                         !
 ! D175  D(51,53,55,57)          0.0168                                         !
 ! D176  D(51,53,55,59)       -179.8092                                         !
 ! D177  D(56,53,55,57)        179.7977                                         !
 ! D178  D(56,53,55,59)         -0.0283                                         !
 ! D179  D(52,54,57,55)         -0.0028                                         !
 ! D180  D(52,54,57,60)        179.8519                                         !
 ! D181  D(58,54,57,55)       -179.6744                                         !
 ! D182  D(58,54,57,60)          0.1802                                         !
 ! D183  D(53,55,57,54)          0.1553                                         !
 ! D184  D(53,55,57,60)       -179.6995                                         !
 ! D185  D(59,55,57,54)        179.9822                                         !
 ! D186  D(59,55,57,60)          0.1274                                         !
 ! D187  D(50,62,63,64)        126.4242                                         !
 ! D188  D(50,62,63,65)       -112.6725                                         !
 ! D189  D(50,62,63,66)          5.7082                                         !
 ! D190  D(52,62,63,64)        -60.0454                                         !
 ! D191  D(52,62,63,65)         60.8579                                         !
 ! D192  D(52,62,63,66)        179.2386                                         !
 --------------------------------------------------------------------------------
 Stoichiometry    C26H33N4O4S2(2)
 Framework group  C1[X(C26H33N4O4S2)]
 Deg. of freedom   201
 Full point group                 C1      NOp   1
 Largest Abelian subgroup         C1      NOp   1
 Largest concise Abelian subgroup C1      NOp   1
                         Standard orientation:                         
 ---------------------------------------------------------------------
 Center     Atomic      Atomic             Coordinates (Angstroms)
 Number     Number       Type             X           Y           Z
 ---------------------------------------------------------------------
      1          6           0       -4.936672   -2.795902    2.219012
      2          6           0       -4.645537   -1.728130    1.364035
      3          6           0       -4.588671   -0.416711    1.870416
      4          6           0       -4.826705   -0.121160    3.213593
      5          6           0       -5.114388   -1.194105    4.044359
      6          6           0       -5.167629   -2.513202    3.555436
      7          1           0       -4.978033   -3.808015    1.830814
      8          1           0       -4.796722    0.893268    3.598891
      9          1           0       -5.305773   -1.011001    5.096821
     10          1           0       -5.396607   -3.320857    4.243027
     11          7           0       -4.383094   -1.724742    0.005738
     12          7           0       -4.267017    0.378029    0.783304
     13          6           0       -4.162904    1.822318    0.826940
     14          1           0       -5.100535    2.303762    0.528582
     15          1           0       -3.920557    2.120534    1.848517
     16          1           0       -3.360703    2.170015    0.174702
     17          6           0       -4.177667   -0.469907   -0.304074
     18         16           0        0.287304   -0.723636   -1.710658
     19          8           0        0.951203   -2.019925   -1.578337
     20          8           0        0.481999    0.068081   -2.931529
     21          6           0       -1.474454   -0.974401   -1.471381
     22          6           0       -2.310067    0.249844   -1.827445
     23          1           0       -1.614105   -1.312890   -0.439535
     24          1           0       -1.706026   -1.823518   -2.124003
     25          6           0       -3.817194   -0.038851   -1.699899
     26          1           0       -2.037181    1.097382   -1.185370
     27          1           0       -2.082040    0.548397   -2.855774
     28          6           0       -4.665590    1.116036   -2.254426
     29          1           0       -4.034778   -0.928664   -2.302879
     30          1           0       -4.357872    2.072570   -1.812991
     31          1           0       -4.449213    1.201914   -3.327032
     32          6           0       -6.167445    0.916881   -2.054740
     33          6           0       -6.984779    2.043443   -2.680949
     34          1           0       -6.391679    0.847901   -0.982183
     35          1           0       -6.461896   -0.048214   -2.485227
     36          1           0       -8.056463    1.891049   -2.528390
     37          1           0       -6.717544    3.011196   -2.242220
     38          1           0       -6.803919    2.107230   -3.758865
     39          6           0        0.786219    0.321784   -0.331050
     40          1           0        0.087549    1.164462   -0.309491
     41          6           0        2.225901    0.828587   -0.518883
     42          1           0        2.332845    1.189230   -1.548275
     43          6           0        2.438406    2.011042    0.441681
     44          1           0        2.234498    1.693101    1.467741
     45          1           0        1.740753    2.811400    0.172240
     46          1           0        0.698009   -0.265102    0.587824
     47          6           0        3.867548    2.541885    0.373700
     48          1           0        4.571974    1.856824    0.849009
     49          1           0        4.184884    2.781103   -0.644806
     50          6           0        3.224102   -0.262410   -0.232072
     51          6           0        4.488384   -1.593533    0.858301
     52          6           0        4.663001   -1.901040   -0.503723
     53          6           0        5.198468   -2.306422    1.830442
     54          6           0        5.520028   -2.910295   -0.945420
     55          6           0        6.054046   -3.308124    1.401911
     56          1           0        5.069906   -2.073130    2.882081
     57          6           0        6.211317   -3.606749    0.033947
     58          1           0        5.636904   -3.143433   -1.999086
     59          1           0        6.616096   -3.880578    2.132835
     60          1           0        6.888331   -4.402802   -0.259115
     61          7           0        3.582322   -0.558541    0.993084
     62          7           0        3.848233   -1.022542   -1.187943
     63          6           0        3.656901   -1.054881   -2.625666
     64          1           0        4.618663   -0.906458   -3.125091
     65          1           0        3.226411   -2.016654   -2.914157
     66          1           0        2.961285   -0.275203   -2.934960
     67         16           0        3.955549    4.121660    1.294058
     68          8           0        3.576215    3.808841    2.683844
     69          8           0        3.188966    5.098674    0.497076
 ---------------------------------------------------------------------
 Rotational constants (GHZ):           0.1184687           0.0474061           0.0442045
 Standard basis: def2TZVP (5D, 7F)
 There are  1506 symmetry adapted cartesian basis functions of A   symmetry.
 There are  1326 symmetry adapted basis functions of A   symmetry.
  1326 basis functions,  2136 primitive gaussians,  1506 cartesian basis functions
   141 alpha electrons      140 beta electrons
       nuclear repulsion energy      4302.3625975784 Hartrees.
 NAtoms=   69 NActive=   69 NUniq=   69 SFac= 1.00D+00 NAtFMM=   60 NAOKFM=T Big=T
 Integral buffers will be    131072 words long.
 Raffenetti 2 integral format.
 Two-electron integral symmetry is turned on.
 ------------------------------------------------------------------------------
 Polarizable Continuum Model (PCM)
 =================================
 Model                : PCM.
 Atomic radii         : UFF (Universal Force Field).
 Polarization charges : Total charges.
 Charge compensation  : None.
 Solution method      : On-the-fly selection.
 Cavity type          : Scaled VdW (van der Waals Surface) (Alpha=1.100).
 Cavity algorithm     : GePol (No added spheres)
                        Default sphere list used, NSphG=   69.
                        Lebedev-Laikov grids with approx.  5.0 points / Ang**2.
                        Smoothing algorithm: York/Karplus (Gamma=1.0000).
                        Polarization charges: spherical gaussians, with
                                              point-specific exponents (IZeta= 3).
                        Self-potential: point-specific (ISelfS= 7).
                        Self-field    : sphere-specific E.n sum rule (ISelfD= 2).
 Solvent              : n,n-DiMethylFormamide, Eps=  37.219000 Eps(inf)=   2.046330
 ------------------------------------------------------------------------------
 One-electron integrals computed using PRISM.
   1 Symmetry operations used in ECPInt.
 ECPInt:  NShTT=  141778 NPrTT=  435697 LenC2=  100833 LenP2D=  205563.
 LDataN:  DoStor=T MaxTD1= 6 Len=  172
 Number of processors reduced to  21 by ecpmxn.
 NBasis=  1326 RedAO= T EigKep=  7.84D-06  NBF=  1326
 NBsUse=  1326 1.00D-06 EigRej= -1.00D+00 NBFU=  1326
 ExpMin= 9.52D-02 ExpMax= 6.07D+04 ExpMxC= 2.07D+03 IAcc=3 IRadAn=         5 AccDes= 0.00D+00
 Harris functional with IExCor= 1009 and IRadAn=       5 diagonalized for initial guess.
 HarFok:  IExCor= 1009 AccDes= 0.00D+00 IRadAn=         5 IDoV= 1 UseB2=F ITyADJ=14
 ICtDFT=  3500011 ScaDFX=  1.000000  1.000000  1.000000  1.000000
 FoFCou: FMM=F IPFlag=           0 FMFlag=      100000 FMFlg1=        2001
         NFxFlg=           0 DoJE=T BraDBF=F KetDBF=T FulRan=T
         wScrn=  0.000000 ICntrl=       500 IOpCl=  0 I1Cent=   200000004 NGrid=           0
         NMat0=    1 NMatS0=      1 NMatT0=    0 NMatD0=    1 NMtDS0=    0 NMtDT0=    0
 Petite list used in FoFCou.
 Initial guess <Sx>= 0.0000 <Sy>= 0.0000 <Sz>= 0.5000 <S**2>= 0.7500 S= 0.5000
 Requested convergence on RMS density matrix=1.00D-08 within 128 cycles.
 Requested convergence on MAX density matrix=1.00D-06.
 Requested convergence on             energy=1.00D-06.
 No special actions if energy rises.
 Inv3:  Mode=1 IEnd=    68087088.
 Iteration    1 A*A^-1 deviation from unit magnitude is 4.00D-15 for   2246.
 Iteration    1 A*A^-1 deviation from orthogonality  is 2.74D-15 for   1534    998.
 Iteration    1 A^-1*A deviation from unit magnitude is 3.77D-15 for    638.
 Iteration    1 A^-1*A deviation from orthogonality  is 4.52D-13 for   4001   3980.
 Error on total polarization charges =  0.02318
 SCF Done:  E(UM062X) =  -2326.86615381     A.U. after   17 cycles
            NFock= 17  Conv=0.21D-08     -V/T= 2.0039
 <Sx>= 0.0000 <Sy>= 0.0000 <Sz>= 0.5000 <S**2>= 0.7569 S= 0.5034
 <L.S>=  0.00000000000    
 Annihilation of the first spin contaminant:
 S**2 before annihilation     0.7569,   after     0.7500

 **********************************************************************

            Population analysis using the SCF Density.

 **********************************************************************

 Orbital symmetries:
 Alpha Orbitals:
       Occupied  (A) (A) (A) (A) (A) (A) (A) (A) (A) (A) (A) (A)
                 (A) (A) (A) (A) (A) (A) (A) (A) (A) (A) (A) (A)
                 (A) (A) (A) (A) (A) (A) (A) (A) (A) (A) (A) (A)
                 (A) (A) (A) (A) (A) (A) (A) (A) (A) (A) (A) (A)
                 (A) (A) (A) (A) (A) (A) (A) (A) (A) (A) (A) (A)
                 (A) (A) (A) (A) (A) (A) (A) (A) (A) (A) (A) (A)
                 (A) (A) (A) (A) (A) (A) (A) (A) (A) (A) (A) (A)
                 (A) (A) (A) (A) (A) (A) (A) (A) (A) (A) (A) (A)
                 (A) (A) (A) (A) (A) (A) (A) (A) (A) (A) (A) (A)
                 (A) (A) (A) (A) (A) (A) (A) (A) (A) (A) (A) (A)
                 (A) (A) (A) (A) (A) (A) (A) (A) (A) (A) (A) (A)
                 (A) (A) (A) (A) (A) (A) (A) (A) (A)
       Virtual   (A) (A) (A) (A) (A) (A) (A) (A) (A) (A) (A) (A)
                 (A) (A) (A) (A) (A) (A) (A) (A) (A) (A) (A) (A)
                 (A) (A) (A) (A) (A) (A) (A) (A) (A) (A) (A) (A)
                 (A) (A) (A) (A) (A) (A) (A) (A) (A) (A) (A) (A)
                 (A) (A) (A) (A) (A) (A) (A) (A) (A) (A) (A) (A)
                 (A) (A) (A) (A) (A) (A) (A) (A) (A) (A) (A) (A)
                 (A) (A) (A) (A) (A) (A) (A) (A) (A) (A) (A) (A)
                 (A) (A) (A) (A) (A) (A) (A) (A) (A) (A) (A) (A)
                 (A) (A) (A) (A) (A) (A) (A) (A) (A) (A) (A) (A)
                 (A) (A) (A) (A) (A) (A) (A) (A) (A) (A) (A) (A)
                 (A) (A) (A) (A) (A) (A) (A) (A) (A) (A) (A) (A)
                 (A) (A) (A) (A) (A) (A) (A) (A) (A) (A) (A) (A)
                 (A) (A) (A) (A) (A) (A) (A) (A) (A) (A) (A) (A)
                 (A) (A) (A) (A) (A) (A) (A) (A) (A) (A) (A) (A)
                 (A) (A) (A) (A) (A) (A) (A) (A) (A) (A) (A) (A)
                 (A) (A) (A) (A) (A) (A) (A) (A) (A) (A) (A) (A)
                 (A) (A) (A) (A) (A) (A) (A) (A) (A) (A) (A) (A)
                 (A) (A) (A) (A) (A) (A) (A) (A) (A) (A) (A) (A)
                 (A) (A) (A) (A) (A) (A) (A) (A) (A) (A) (A) (A)
                 (A) (A) (A) (A) (A) (A) (A) (A) (A) (A) (A) (A)
                 (A) (A) (A) (A) (A) (A) (A) (A) (A) (A) (A) (A)
                 (A) (A) (A) (A) (A) (A) (A) (A) (A) (A) (A) (A)
                 (A) (A) (A) (A) (A) (A) (A) (A) (A) (A) (A) (A)
                 (A) (A) (A) (A) (A) (A) (A) (A) (A) (A) (A) (A)
                 (A) (A) (A) (A) (A) (A) (A) (A) (A) (A) (A) (A)
                 (A) (A) (A) (A) (A) (A) (A) (A) (A) (A) (A) (A)
                 (A) (A) (A) (A) (A) (A) (A) (A) (A) (A) (A) (A)
                 (A) (A) (A) (A) (A) (A) (A) (A) (A) (A) (A) (A)
                 (A) (A) (A) (A) (A) (A) (A) (A) (A) (A) (A) (A)
                 (A) (A) (A) (A) (A) (A) (A) (A) (A) (A) (A) (A)
                 (A) (A) (A) (A) (A) (A) (A) (A) (A) (A) (A) (A)
                 (A) (A) (A) (A) (A) (A) (A) (A) (A) (A) (A) (A)
                 (A) (A) (A) (A) (A) (A) (A) (A) (A) (A) (A) (A)
                 (A) (A) (A) (A) (A) (A) (A) (A) (A) (A) (A) (A)
                 (A) (A) (A) (A) (A) (A) (A) (A) (A) (A) (A) (A)
                 (A) (A) (A) (A) (A) (A) (A) (A) (A) (A) (A) (A)
                 (A) (A) (A) (A) (A) (A) (A) (A) (A) (A) (A) (A)
                 (A) (A) (A) (A) (A) (A) (A) (A) (A) (A) (A) (A)
                 (A) (A) (A) (A) (A) (A) (A) (A) (A) (A) (A) (A)
                 (A) (A) (A) (A) (A) (A) (A) (A) (A) (A) (A) (A)
                 (A) (A) (A) (A) (A) (A) (A) (A) (A) (A) (A) (A)
                 (A) (A) (A) (A) (A) (A) (A) (A) (A) (A) (A) (A)
                 (A) (A) (A) (A) (A) (A) (A) (A) (A) (A) (A) (A)
                 (A) (A) (A) (A) (A) (A) (A) (A) (A) (A) (A) (A)
                 (A) (A) (A) (A) (A) (A) (A) (A) (A) (A) (A) (A)
                 (A) (A) (A) (A) (A) (A) (A) (A) (A) (A) (A) (A)
                 (A) (A) (A) (A) (A) (A) (A) (A) (A) (A) (A) (A)
                 (A) (A) (A) (A) (A) (A) (A) (A) (A) (A) (A) (A)
                 (A) (A) (A) (A) (A) (A) (A) (A) (A) (A) (A) (A)
                 (A) (A) (A) (A) (A) (A) (A) (A) (A) (A) (A) (A)
                 (A) (A) (A) (A) (A) (A) (A) (A) (A) (A) (A) (A)
                 (A) (A) (A) (A) (A) (A) (A) (A) (A) (A) (A) (A)
                 (A) (A) (A) (A) (A) (A) (A) (A) (A) (A) (A) (A)
                 (A) (A) (A) (A) (A) (A) (A) (A) (A) (A) (A) (A)
                 (A) (A) (A) (A) (A) (A) (A) (A) (A) (A) (A) (A)
                 (A) (A) (A) (A) (A) (A) (A) (A) (A) (A) (A) (A)
                 (A) (A) (A) (A) (A) (A) (A) (A) (A) (A) (A) (A)
                 (A) (A) (A) (A) (A) (A) (A) (A) (A) (A) (A) (A)
                 (A) (A) (A) (A) (A) (A) (A) (A) (A) (A) (A) (A)
                 (A) (A) (A) (A) (A) (A) (A) (A) (A) (A) (A) (A)
                 (A) (A) (A) (A) (A) (A) (A) (A) (A) (A) (A) (A)
                 (A) (A) (A) (A) (A) (A) (A) (A) (A) (A) (A) (A)
                 (A) (A) (A) (A) (A) (A) (A) (A) (A) (A) (A) (A)
                 (A) (A) (A) (A) (A) (A) (A) (A) (A) (A) (A) (A)
                 (A) (A) (A) (A) (A) (A) (A) (A) (A) (A) (A) (A)
                 (A) (A) (A) (A) (A) (A) (A) (A) (A) (A) (A) (A)
                 (A) (A) (A) (A) (A) (A) (A) (A) (A) (A) (A) (A)
                 (A) (A) (A) (A) (A) (A) (A) (A) (A) (A) (A) (A)
                 (A) (A) (A) (A) (A) (A) (A) (A) (A) (A) (A) (A)
                 (A) (A) (A) (A) (A) (A) (A) (A) (A) (A) (A) (A)
                 (A) (A) (A) (A) (A) (A) (A) (A) (A) (A) (A) (A)
                 (A) (A) (A) (A) (A) (A) (A) (A) (A) (A) (A) (A)
                 (A) (A) (A) (A) (A) (A) (A) (A) (A) (A) (A) (A)
                 (A) (A) (A) (A) (A) (A) (A) (A) (A) (A) (A) (A)
                 (A) (A) (A) (A) (A) (A) (A) (A) (A) (A) (A) (A)
                 (A) (A) (A) (A) (A) (A) (A) (A) (A) (A) (A) (A)
                 (A) (A) (A) (A) (A) (A) (A) (A) (A) (A) (A) (A)
                 (A) (A) (A) (A) (A) (A) (A) (A) (A) (A) (A) (A)
                 (A) (A) (A) (A) (A) (A) (A) (A) (A) (A) (A) (A)
                 (A) (A) (A) (A) (A) (A) (A) (A) (A) (A) (A) (A)
                 (A) (A) (A) (A) (A) (A) (A) (A) (A) (A) (A) (A)
                 (A) (A) (A) (A) (A) (A) (A) (A) (A) (A) (A) (A)
                 (A) (A) (A) (A) (A) (A) (A) (A) (A) (A) (A) (A)
                 (A) (A) (A) (A) (A) (A) (A) (A) (A) (A) (A) (A)
                 (A) (A) (A) (A) (A) (A) (A) (A) (A) (A) (A) (A)
                 (A) (A) (A) (A) (A) (A) (A) (A) (A) (A) (A) (A)
                 (A) (A) (A) (A) (A) (A) (A) (A) (A) (A) (A) (A)
                 (A) (A) (A) (A) (A) (A) (A) (A) (A) (A) (A) (A)
                 (A) (A) (A) (A) (A) (A) (A) (A) (A) (A) (A) (A)
                 (A) (A) (A) (A) (A) (A) (A) (A) (A) (A) (A) (A)
                 (A) (A) (A) (A) (A) (A) (A) (A) (A) (A) (A) (A)
                 (A) (A) (A) (A) (A) (A) (A) (A) (A) (A) (A) (A)
                 (A) (A) (A) (A) (A) (A) (A) (A) (A) (A) (A) (A)
                 (A) (A) (A) (A) (A) (A) (A) (A) (A) (A) (A) (A)
                 (A) (A) (A) (A) (A) (A) (A) (A) (A) (A) (A) (A)
                 (A) (A) (A) (A) (A) (A) (A) (A) (A) (A) (A) (A)
                 (A) (A) (A) (A) (A) (A) (A) (A) (A) (A) (A) (A)
                 (A) (A) (A) (A) (A) (A) (A) (A) (A) (A) (A) (A)
                 (A) (A) (A) (A) (A) (A) (A) (A) (A)
 Beta  Orbitals:
       Occupied  (A) (A) (A) (A) (A) (A) (A) (A) (A) (A) (A) (A)
                 (A) (A) (A) (A) (A) (A) (A) (A) (A) (A) (A) (A)
                 (A) (A) (A) (A) (A) (A) (A) (A) (A) (A) (A) (A)
                 (A) (A) (A) (A) (A) (A) (A) (A) (A) (A) (A) (A)
                 (A) (A) (A) (A) (A) (A) (A) (A) (A) (A) (A) (A)
                 (A) (A) (A) (A) (A) (A) (A) (A) (A) (A) (A) (A)
                 (A) (A) (A) (A) (A) (A) (A) (A) (A) (A) (A) (A)
                 (A) (A) (A) (A) (A) (A) (A) (A) (A) (A) (A) (A)
                 (A) (A) (A) (A) (A) (A) (A) (A) (A) (A) (A) (A)
                 (A) (A) (A) (A) (A) (A) (A) (A) (A) (A) (A) (A)
                 (A) (A) (A) (A) (A) (A) (A) (A) (A) (A) (A) (A)
                 (A) (A) (A) (A) (A) (A) (A) (A)
       Virtual   (A) (A) (A) (A) (A) (A) (A) (A) (A) (A) (A) (A)
                 (A) (A) (A) (A) (A) (A) (A) (A) (A) (A) (A) (A)
                 (A) (A) (A) (A) (A) (A) (A) (A) (A) (A) (A) (A)
                 (A) (A) (A) (A) (A) (A) (A) (A) (A) (A) (A) (A)
                 (A) (A) (A) (A) (A) (A) (A) (A) (A) (A) (A) (A)
                 (A) (A) (A) (A) (A) (A) (A) (A) (A) (A) (A) (A)
                 (A) (A) (A) (A) (A) (A) (A) (A) (A) (A) (A) (A)
                 (A) (A) (A) (A) (A) (A) (A) (A) (A) (A) (A) (A)
                 (A) (A) (A) (A) (A) (A) (A) (A) (A) (A) (A) (A)
                 (A) (A) (A) (A) (A) (A) (A) (A) (A) (A) (A) (A)
                 (A) (A) (A) (A) (A) (A) (A) (A) (A) (A) (A) (A)
                 (A) (A) (A) (A) (A) (A) (A) (A) (A) (A) (A) (A)
                 (A) (A) (A) (A) (A) (A) (A) (A) (A) (A) (A) (A)
                 (A) (A) (A) (A) (A) (A) (A) (A) (A) (A) (A) (A)
                 (A) (A) (A) (A) (A) (A) (A) (A) (A) (A) (A) (A)
                 (A) (A) (A) (A) (A) (A) (A) (A) (A) (A) (A) (A)
                 (A) (A) (A) (A) (A) (A) (A) (A) (A) (A) (A) (A)
                 (A) (A) (A) (A) (A) (A) (A) (A) (A) (A) (A) (A)
                 (A) (A) (A) (A) (A) (A) (A) (A) (A) (A) (A) (A)
                 (A) (A) (A) (A) (A) (A) (A) (A) (A) (A) (A) (A)
                 (A) (A) (A) (A) (A) (A) (A) (A) (A) (A) (A) (A)
                 (A) (A) (A) (A) (A) (A) (A) (A) (A) (A) (A) (A)
                 (A) (A) (A) (A) (A) (A) (A) (A) (A) (A) (A) (A)
                 (A) (A) (A) (A) (A) (A) (A) (A) (A) (A) (A) (A)
                 (A) (A) (A) (A) (A) (A) (A) (A) (A) (A) (A) (A)
                 (A) (A) (A) (A) (A) (A) (A) (A) (A) (A) (A) (A)
                 (A) (A) (A) (A) (A) (A) (A) (A) (A) (A) (A) (A)
                 (A) (A) (A) (A) (A) (A) (A) (A) (A) (A) (A) (A)
                 (A) (A) (A) (A) (A) (A) (A) (A) (A) (A) (A) (A)
                 (A) (A) (A) (A) (A) (A) (A) (A) (A) (A) (A) (A)
                 (A) (A) (A) (A) (A) (A) (A) (A) (A) (A) (A) (A)
                 (A) (A) (A) (A) (A) (A) (A) (A) (A) (A) (A) (A)
                 (A) (A) (A) (A) (A) (A) (A) (A) (A) (A) (A) (A)
                 (A) (A) (A) (A) (A) (A) (A) (A) (A) (A) (A) (A)
                 (A) (A) (A) (A) (A) (A) (A) (A) (A) (A) (A) (A)
                 (A) (A) (A) (A) (A) (A) (A) (A) (A) (A) (A) (A)
                 (A) (A) (A) (A) (A) (A) (A) (A) (A) (A) (A) (A)
                 (A) (A) (A) (A) (A) (A) (A) (A) (A) (A) (A) (A)
                 (A) (A) (A) (A) (A) (A) (A) (A) (A) (A) (A) (A)
                 (A) (A) (A) (A) (A) (A) (A) (A) (A) (A) (A) (A)
                 (A) (A) (A) (A) (A) (A) (A) (A) (A) (A) (A) (A)
                 (A) (A) (A) (A) (A) (A) (A) (A) (A) (A) (A) (A)
                 (A) (A) (A) (A) (A) (A) (A) (A) (A) (A) (A) (A)
                 (A) (A) (A) (A) (A) (A) (A) (A) (A) (A) (A) (A)
                 (A) (A) (A) (A) (A) (A) (A) (A) (A) (A) (A) (A)
                 (A) (A) (A) (A) (A) (A) (A) (A) (A) (A) (A) (A)
                 (A) (A) (A) (A) (A) (A) (A) (A) (A) (A) (A) (A)
                 (A) (A) (A) (A) (A) (A) (A) (A) (A) (A) (A) (A)
                 (A) (A) (A) (A) (A) (A) (A) (A) (A) (A) (A) (A)
                 (A) (A) (A) (A) (A) (A) (A) (A) (A) (A) (A) (A)
                 (A) (A) (A) (A) (A) (A) (A) (A) (A) (A) (A) (A)
                 (A) (A) (A) (A) (A) (A) (A) (A) (A) (A) (A) (A)
                 (A) (A) (A) (A) (A) (A) (A) (A) (A) (A) (A) (A)
                 (A) (A) (A) (A) (A) (A) (A) (A) (A) (A) (A) (A)
                 (A) (A) (A) (A) (A) (A) (A) (A) (A) (A) (A) (A)
                 (A) (A) (A) (A) (A) (A) (A) (A) (A) (A) (A) (A)
                 (A) (A) (A) (A) (A) (A) (A) (A) (A) (A) (A) (A)
                 (A) (A) (A) (A) (A) (A) (A) (A) (A) (A) (A) (A)
                 (A) (A) (A) (A) (A) (A) (A) (A) (A) (A) (A) (A)
                 (A) (A) (A) (A) (A) (A) (A) (A) (A) (A) (A) (A)
                 (A) (A) (A) (A) (A) (A) (A) (A) (A) (A) (A) (A)
                 (A) (A) (A) (A) (A) (A) (A) (A) (A) (A) (A) (A)
                 (A) (A) (A) (A) (A) (A) (A) (A) (A) (A) (A) (A)
                 (A) (A) (A) (A) (A) (A) (A) (A) (A) (A) (A) (A)
                 (A) (A) (A) (A) (A) (A) (A) (A) (A) (A) (A) (A)
                 (A) (A) (A) (A) (A) (A) (A) (A) (A) (A) (A) (A)
                 (A) (A) (A) (A) (A) (A) (A) (A) (A) (A) (A) (A)
                 (A) (A) (A) (A) (A) (A) (A) (A) (A) (A) (A) (A)
                 (A) (A) (A) (A) (A) (A) (A) (A) (A) (A) (A) (A)
                 (A) (A) (A) (A) (A) (A) (A) (A) (A) (A) (A) (A)
                 (A) (A) (A) (A) (A) (A) (A) (A) (A) (A) (A) (A)
                 (A) (A) (A) (A) (A) (A) (A) (A) (A) (A) (A) (A)
                 (A) (A) (A) (A) (A) (A) (A) (A) (A) (A) (A) (A)
                 (A) (A) (A) (A) (A) (A) (A) (A) (A) (A) (A) (A)
                 (A) (A) (A) (A) (A) (A) (A) (A) (A) (A) (A) (A)
                 (A) (A) (A) (A) (A) (A) (A) (A) (A) (A) (A) (A)
                 (A) (A) (A) (A) (A) (A) (A) (A) (A) (A) (A) (A)
                 (A) (A) (A) (A) (A) (A) (A) (A) (A) (A) (A) (A)
                 (A) (A) (A) (A) (A) (A) (A) (A) (A) (A) (A) (A)
                 (A) (A) (A) (A) (A) (A) (A) (A) (A) (A) (A) (A)
                 (A) (A) (A) (A) (A) (A) (A) (A) (A) (A) (A) (A)
                 (A) (A) (A) (A) (A) (A) (A) (A) (A) (A) (A) (A)
                 (A) (A) (A) (A) (A) (A) (A) (A) (A) (A) (A) (A)
                 (A) (A) (A) (A) (A) (A) (A) (A) (A) (A) (A) (A)
                 (A) (A) (A) (A) (A) (A) (A) (A) (A) (A) (A) (A)
                 (A) (A) (A) (A) (A) (A) (A) (A) (A) (A) (A) (A)
                 (A) (A) (A) (A) (A) (A) (A) (A) (A) (A) (A) (A)
                 (A) (A) (A) (A) (A) (A) (A) (A) (A) (A) (A) (A)
                 (A) (A) (A) (A) (A) (A) (A) (A) (A) (A) (A) (A)
                 (A) (A) (A) (A) (A) (A) (A) (A) (A) (A) (A) (A)
                 (A) (A) (A) (A) (A) (A) (A) (A) (A) (A) (A) (A)
                 (A) (A) (A) (A) (A) (A) (A) (A) (A) (A) (A) (A)
                 (A) (A) (A) (A) (A) (A) (A) (A) (A) (A) (A) (A)
                 (A) (A) (A) (A) (A) (A) (A) (A) (A) (A) (A) (A)
                 (A) (A) (A) (A) (A) (A) (A) (A) (A) (A) (A) (A)
                 (A) (A) (A) (A) (A) (A) (A) (A) (A) (A) (A) (A)
                 (A) (A) (A) (A) (A) (A) (A) (A) (A) (A) (A) (A)
                 (A) (A) (A) (A) (A) (A) (A) (A) (A) (A) (A) (A)
                 (A) (A) (A) (A) (A) (A) (A) (A) (A) (A)
 The electronic state is 2-A.
 Alpha  occ. eigenvalues --  -90.09987 -90.08100 -19.66069 -19.66016 -19.63318
 Alpha  occ. eigenvalues --  -19.63300 -14.81341 -14.81148 -14.74369 -14.74149
 Alpha  occ. eigenvalues --  -10.62276 -10.61702 -10.59678 -10.59081 -10.58957
 Alpha  occ. eigenvalues --  -10.58402 -10.58385 -10.58077 -10.57948 -10.57836
 Alpha  occ. eigenvalues --  -10.56996 -10.56875 -10.56663 -10.56495 -10.56254
 Alpha  occ. eigenvalues --  -10.55155 -10.55133 -10.54625 -10.54544 -10.54537
 Alpha  occ. eigenvalues --  -10.54495 -10.54245 -10.54142 -10.54063 -10.53423
 Alpha  occ. eigenvalues --  -10.52321  -8.43157  -8.41745  -6.35239  -6.35215
 Alpha  occ. eigenvalues --   -6.35205  -6.34062  -6.33626  -6.33600  -1.24094
 Alpha  occ. eigenvalues --   -1.23481  -1.15039  -1.14660  -1.14226  -1.13110
 Alpha  occ. eigenvalues --   -1.01005  -1.00700  -0.96998  -0.96231  -0.94613
 Alpha  occ. eigenvalues --   -0.93887  -0.90722  -0.89234  -0.86168  -0.85327
 Alpha  occ. eigenvalues --   -0.85134  -0.84112  -0.82669  -0.81449  -0.81095
 Alpha  occ. eigenvalues --   -0.80494  -0.76706  -0.74858  -0.73343  -0.70883
 Alpha  occ. eigenvalues --   -0.69716  -0.69537  -0.68781  -0.68066  -0.67310
 Alpha  occ. eigenvalues --   -0.66911  -0.65149  -0.64964  -0.61384  -0.60019
 Alpha  occ. eigenvalues --   -0.59508  -0.59229  -0.58958  -0.58254  -0.57882
 Alpha  occ. eigenvalues --   -0.57613  -0.57102  -0.56809  -0.56492  -0.56039
 Alpha  occ. eigenvalues --   -0.56011  -0.55386  -0.53572  -0.53218  -0.52771
 Alpha  occ. eigenvalues --   -0.51942  -0.51669  -0.51092  -0.50801  -0.50526
 Alpha  occ. eigenvalues --   -0.50333  -0.49949  -0.49819  -0.48848  -0.48314
 Alpha  occ. eigenvalues --   -0.48125  -0.47780  -0.47643  -0.47178  -0.46933
 Alpha  occ. eigenvalues --   -0.46439  -0.45211  -0.44786  -0.43923  -0.43687
 Alpha  occ. eigenvalues --   -0.43212  -0.42833  -0.42767  -0.42352  -0.42262
 Alpha  occ. eigenvalues --   -0.42013  -0.41796  -0.41539  -0.41518  -0.41409
 Alpha  occ. eigenvalues --   -0.40879  -0.40675  -0.39961  -0.39769  -0.38848
 Alpha  occ. eigenvalues --   -0.38785  -0.36899  -0.36822  -0.36224  -0.35865
 Alpha  occ. eigenvalues --   -0.35435  -0.31997  -0.28738  -0.28590  -0.28503
 Alpha  occ. eigenvalues --   -0.28407
 Alpha virt. eigenvalues --   -0.00119   0.00206   0.03748   0.03856   0.04640
 Alpha virt. eigenvalues --    0.05664   0.05924   0.06457   0.06744   0.06904
 Alpha virt. eigenvalues --    0.07309   0.08334   0.08591   0.08716   0.09150
 Alpha virt. eigenvalues --    0.09306   0.09387   0.09805   0.09925   0.10113
 Alpha virt. eigenvalues --    0.10572   0.10865   0.11075   0.11422   0.11563
 Alpha virt. eigenvalues --    0.12078   0.12480   0.12613   0.13022   0.13287
 Alpha virt. eigenvalues --    0.13368   0.13870   0.14179   0.14184   0.14562
 Alpha virt. eigenvalues --    0.14912   0.15001   0.15129   0.15535   0.15655
 Alpha virt. eigenvalues --    0.16042   0.16558   0.16891   0.17383   0.17561
 Alpha virt. eigenvalues --    0.18031   0.18399   0.18541   0.18810   0.19192
 Alpha virt. eigenvalues --    0.19354   0.19810   0.20179   0.20502   0.20680
 Alpha virt. eigenvalues --    0.20817   0.21384   0.21540   0.21882   0.22094
 Alpha virt. eigenvalues --    0.22487   0.22861   0.23119   0.23214   0.23746
 Alpha virt. eigenvalues --    0.23886   0.24128   0.24304   0.24464   0.24485
 Alpha virt. eigenvalues --    0.24932   0.25042   0.25697   0.25776   0.25852
 Alpha virt. eigenvalues --    0.26423   0.26599   0.27158   0.27296   0.27861
 Alpha virt. eigenvalues --    0.27970   0.28072   0.28531   0.28879   0.29065
 Alpha virt. eigenvalues --    0.29178   0.29683   0.30022   0.30384   0.30560
 Alpha virt. eigenvalues --    0.31103   0.31451   0.31836   0.32061   0.32501
 Alpha virt. eigenvalues --    0.32558   0.32691   0.32836   0.33296   0.33617
 Alpha virt. eigenvalues --    0.33754   0.33876   0.34838   0.35041   0.35121
 Alpha virt. eigenvalues --    0.35422   0.36165   0.36437   0.36516   0.36652
 Alpha virt. eigenvalues --    0.36923   0.37322   0.37394   0.37684   0.38248
 Alpha virt. eigenvalues --    0.38600   0.38932   0.38973   0.39462   0.39800
 Alpha virt. eigenvalues --    0.39855   0.40352   0.40722   0.40979   0.41165
 Alpha virt. eigenvalues --    0.41294   0.41498   0.41792   0.42147   0.42582
 Alpha virt. eigenvalues --    0.42647   0.43111   0.43423   0.43522   0.43753
 Alpha virt. eigenvalues --    0.43931   0.44042   0.44175   0.44315   0.44518
 Alpha virt. eigenvalues --    0.44685   0.45033   0.45283   0.45466   0.45945
 Alpha virt. eigenvalues --    0.46059   0.46523   0.46717   0.47028   0.47246
 Alpha virt. eigenvalues --    0.47366   0.47612   0.47904   0.48009   0.48142
 Alpha virt. eigenvalues --    0.48594   0.48832   0.48888   0.49247   0.49287
 Alpha virt. eigenvalues --    0.49784   0.49971   0.50230   0.50308   0.50764
 Alpha virt. eigenvalues --    0.50960   0.51070   0.51196   0.51368   0.51711
 Alpha virt. eigenvalues --    0.52029   0.52173   0.52448   0.52655   0.52839
 Alpha virt. eigenvalues --    0.53409   0.53528   0.53633   0.53773   0.54278
 Alpha virt. eigenvalues --    0.54594   0.54858   0.55184   0.55321   0.55694
 Alpha virt. eigenvalues --    0.56016   0.56202   0.56566   0.56672   0.56844
 Alpha virt. eigenvalues --    0.57041   0.57264   0.57424   0.58029   0.58529
 Alpha virt. eigenvalues --    0.58826   0.59116   0.59282   0.59625   0.59880
 Alpha virt. eigenvalues --    0.60191   0.60410   0.61059   0.61619   0.62039
 Alpha virt. eigenvalues --    0.62629   0.63158   0.63552   0.63737   0.64429
 Alpha virt. eigenvalues --    0.64810   0.65490   0.65722   0.66058   0.66268
 Alpha virt. eigenvalues --    0.66732   0.66854   0.67175   0.67451   0.68020
 Alpha virt. eigenvalues --    0.68138   0.68502   0.69223   0.69727   0.70160
 Alpha virt. eigenvalues --    0.70382   0.70744   0.71237   0.71976   0.72057
 Alpha virt. eigenvalues --    0.72792   0.72921   0.73417   0.74277   0.74456
 Alpha virt. eigenvalues --    0.74833   0.75110   0.75240   0.75592   0.75782
 Alpha virt. eigenvalues --    0.75912   0.76641   0.76806   0.77088   0.77590
 Alpha virt. eigenvalues --    0.77829   0.78347   0.78509   0.79080   0.79758
 Alpha virt. eigenvalues --    0.79991   0.80499   0.80980   0.81103   0.81308
 Alpha virt. eigenvalues --    0.81464   0.82086   0.82296   0.82842   0.83366
 Alpha virt. eigenvalues --    0.84284   0.84482   0.85356   0.85466   0.86344
 Alpha virt. eigenvalues --    0.86389   0.87139   0.87626   0.88307   0.88488
 Alpha virt. eigenvalues --    0.88599   0.89140   0.89261   0.89941   0.90314
 Alpha virt. eigenvalues --    0.90425   0.90683   0.91019   0.91302   0.91654
 Alpha virt. eigenvalues --    0.91937   0.92330   0.92664   0.92976   0.93952
 Alpha virt. eigenvalues --    0.94071   0.94169   0.94418   0.94730   0.95394
 Alpha virt. eigenvalues --    0.96131   0.96503   0.96575   0.96893   0.97925
 Alpha virt. eigenvalues --    0.98299   0.98586   0.98732   0.99102   0.99832
 Alpha virt. eigenvalues --    1.00909   1.01109   1.01769   1.02345   1.02821
 Alpha virt. eigenvalues --    1.03319   1.03870   1.04438   1.04715   1.05315
 Alpha virt. eigenvalues --    1.06199   1.06319   1.06548   1.07299   1.07776
 Alpha virt. eigenvalues --    1.08466   1.09360   1.09609   1.10038   1.10904
 Alpha virt. eigenvalues --    1.11423   1.11668   1.12023   1.12295   1.13177
 Alpha virt. eigenvalues --    1.13973   1.14193   1.14337   1.14969   1.15325
 Alpha virt. eigenvalues --    1.15563   1.15920   1.16415   1.16842   1.17166
 Alpha virt. eigenvalues --    1.17303   1.18218   1.18958   1.19209   1.19910
 Alpha virt. eigenvalues --    1.20121   1.20863   1.21316   1.21514   1.22552
 Alpha virt. eigenvalues --    1.22744   1.23230   1.24231   1.25272   1.25492
 Alpha virt. eigenvalues --    1.25685   1.26326   1.26420   1.27314   1.27456
 Alpha virt. eigenvalues --    1.28366   1.28461   1.29331   1.29614   1.30253
 Alpha virt. eigenvalues --    1.30500   1.30623   1.31242   1.31705   1.31995
 Alpha virt. eigenvalues --    1.32344   1.33095   1.34234   1.34912   1.35165
 Alpha virt. eigenvalues --    1.35927   1.36690   1.36751   1.37472   1.38051
 Alpha virt. eigenvalues --    1.38546   1.39014   1.39405   1.39652   1.40910
 Alpha virt. eigenvalues --    1.41338   1.41739   1.42620   1.43007   1.44053
 Alpha virt. eigenvalues --    1.45043   1.45599   1.46378   1.46452   1.46872
 Alpha virt. eigenvalues --    1.47462   1.47778   1.48367   1.48692   1.48947
 Alpha virt. eigenvalues --    1.49419   1.49637   1.49741   1.50199   1.50520
 Alpha virt. eigenvalues --    1.50799   1.51169   1.51513   1.51703   1.52077
 Alpha virt. eigenvalues --    1.52674   1.53132   1.53476   1.53840   1.54503
 Alpha virt. eigenvalues --    1.54779   1.55091   1.55228   1.55651   1.55875
 Alpha virt. eigenvalues --    1.56512   1.56989   1.57489   1.57847   1.58237
 Alpha virt. eigenvalues --    1.58490   1.58540   1.58878   1.59080   1.59506
 Alpha virt. eigenvalues --    1.59810   1.60198   1.60614   1.60885   1.61207
 Alpha virt. eigenvalues --    1.61370   1.61525   1.61922   1.62389   1.62644
 Alpha virt. eigenvalues --    1.63505   1.63645   1.63971   1.64690   1.65041
 Alpha virt. eigenvalues --    1.65117   1.65614   1.65877   1.66057   1.66980
 Alpha virt. eigenvalues --    1.67521   1.67725   1.68017   1.68143   1.68696
 Alpha virt. eigenvalues --    1.69246   1.69656   1.70134   1.70435   1.71074
 Alpha virt. eigenvalues --    1.71299   1.71488   1.71600   1.71993   1.72364
 Alpha virt. eigenvalues --    1.72741   1.73004   1.73470   1.73586   1.74483
 Alpha virt. eigenvalues --    1.75102   1.75445   1.75882   1.76100   1.76356
 Alpha virt. eigenvalues --    1.76984   1.77021   1.77414   1.78525   1.78801
 Alpha virt. eigenvalues --    1.79044   1.79867   1.79992   1.80455   1.80692
 Alpha virt. eigenvalues --    1.81214   1.81713   1.81999   1.82647   1.83229
 Alpha virt. eigenvalues --    1.83724   1.84011   1.84388   1.84624   1.84795
 Alpha virt. eigenvalues --    1.85153   1.86112   1.86534   1.86951   1.87433
 Alpha virt. eigenvalues --    1.88026   1.88375   1.88996   1.89318   1.89525
 Alpha virt. eigenvalues --    1.90376   1.91215   1.91237   1.92081   1.92482
 Alpha virt. eigenvalues --    1.94093   1.94272   1.95194   1.95886   1.96379
 Alpha virt. eigenvalues --    1.96877   1.96990   1.97568   1.97903   1.99071
 Alpha virt. eigenvalues --    1.99623   1.99715   2.00242   2.00874   2.01121
 Alpha virt. eigenvalues --    2.01443   2.01914   2.02175   2.03121   2.03609
 Alpha virt. eigenvalues --    2.03850   2.03943   2.04379   2.04709   2.05722
 Alpha virt. eigenvalues --    2.06305   2.07074   2.07784   2.08343   2.09344
 Alpha virt. eigenvalues --    2.09676   2.10107   2.10561   2.10992   2.11226
 Alpha virt. eigenvalues --    2.11915   2.12853   2.13600   2.13682   2.14339
 Alpha virt. eigenvalues --    2.14622   2.15565   2.16098   2.16283   2.16627
 Alpha virt. eigenvalues --    2.17627   2.17870   2.18779   2.19190   2.19505
 Alpha virt. eigenvalues --    2.19999   2.20370   2.21195   2.21279   2.22337
 Alpha virt. eigenvalues --    2.23063   2.23703   2.24216   2.24370   2.24623
 Alpha virt. eigenvalues --    2.25473   2.25678   2.25948   2.26695   2.26988
 Alpha virt. eigenvalues --    2.27188   2.28047   2.28255   2.28886   2.29166
 Alpha virt. eigenvalues --    2.29972   2.30559   2.31315   2.31495   2.32579
 Alpha virt. eigenvalues --    2.32797   2.33461   2.34095   2.34364   2.35032
 Alpha virt. eigenvalues --    2.36043   2.36107   2.36295   2.36948   2.37224
 Alpha virt. eigenvalues --    2.37501   2.37777   2.38113   2.38627   2.39433
 Alpha virt. eigenvalues --    2.39529   2.40024   2.40429   2.40945   2.41371
 Alpha virt. eigenvalues --    2.41828   2.42013   2.42046   2.42942   2.43162
 Alpha virt. eigenvalues --    2.43438   2.44204   2.44265   2.44574   2.44741
 Alpha virt. eigenvalues --    2.45446   2.45696   2.46109   2.46696   2.46948
 Alpha virt. eigenvalues --    2.47304   2.48341   2.48663   2.49314   2.49852
 Alpha virt. eigenvalues --    2.50072   2.50324   2.50889   2.51356   2.51804
 Alpha virt. eigenvalues --    2.52205   2.52675   2.53381   2.53870   2.54792
 Alpha virt. eigenvalues --    2.55024   2.55654   2.56126   2.56432   2.56701
 Alpha virt. eigenvalues --    2.57170   2.57439   2.57865   2.58142   2.59040
 Alpha virt. eigenvalues --    2.59263   2.59421   2.59687   2.59989   2.60669
 Alpha virt. eigenvalues --    2.61132   2.61469   2.62023   2.62468   2.62816
 Alpha virt. eigenvalues --    2.63202   2.64221   2.64620   2.64889   2.65220
 Alpha virt. eigenvalues --    2.65661   2.65902   2.66070   2.66600   2.66864
 Alpha virt. eigenvalues --    2.67240   2.67758   2.68094   2.68738   2.68856
 Alpha virt. eigenvalues --    2.69370   2.69612   2.69854   2.70149   2.70676
 Alpha virt. eigenvalues --    2.71193   2.71389   2.71488   2.72096   2.72375
 Alpha virt. eigenvalues --    2.72771   2.73448   2.73624   2.74192   2.74205
 Alpha virt. eigenvalues --    2.75061   2.75320   2.75787   2.76148   2.76235
 Alpha virt. eigenvalues --    2.76789   2.77011   2.77276   2.77986   2.78132
 Alpha virt. eigenvalues --    2.78437   2.79480   2.79978   2.80230   2.81319
 Alpha virt. eigenvalues --    2.81443   2.82148   2.82385   2.82602   2.83132
 Alpha virt. eigenvalues --    2.83335   2.83659   2.83842   2.84028   2.84418
 Alpha virt. eigenvalues --    2.84984   2.85686   2.85932   2.86100   2.87737
 Alpha virt. eigenvalues --    2.88173   2.88747   2.88920   2.89743   2.90471
 Alpha virt. eigenvalues --    2.90517   2.91433   2.91898   2.92279   2.92842
 Alpha virt. eigenvalues --    2.93345   2.93648   2.93766   2.94002   2.94985
 Alpha virt. eigenvalues --    2.95663   2.96163   2.96817   2.97645   2.97977
 Alpha virt. eigenvalues --    2.98555   2.98743   2.99229   3.00357   3.00755
 Alpha virt. eigenvalues --    3.01692   3.02057   3.02723   3.03110   3.04085
 Alpha virt. eigenvalues --    3.04342   3.04972   3.05737   3.06233   3.06611
 Alpha virt. eigenvalues --    3.07509   3.08116   3.08679   3.08905   3.09735
 Alpha virt. eigenvalues --    3.09900   3.10143   3.10394   3.10639   3.11200
 Alpha virt. eigenvalues --    3.11506   3.11638   3.11961   3.12693   3.13049
 Alpha virt. eigenvalues --    3.13307   3.13362   3.13864   3.14791   3.14947
 Alpha virt. eigenvalues --    3.15087   3.15636   3.15817   3.15998   3.16161
 Alpha virt. eigenvalues --    3.16876   3.17366   3.17559   3.17854   3.18118
 Alpha virt. eigenvalues --    3.18717   3.18869   3.19385   3.19710   3.20186
 Alpha virt. eigenvalues --    3.20599   3.20846   3.21920   3.22157   3.22400
 Alpha virt. eigenvalues --    3.23197   3.23262   3.23980   3.24242   3.24565
 Alpha virt. eigenvalues --    3.25206   3.25507   3.25641   3.25734   3.26458
 Alpha virt. eigenvalues --    3.26999   3.27512   3.27665   3.28101   3.28590
 Alpha virt. eigenvalues --    3.28832   3.29283   3.29457   3.30054   3.30822
 Alpha virt. eigenvalues --    3.31165   3.31553   3.32013   3.32826   3.32988
 Alpha virt. eigenvalues --    3.33376   3.33788   3.34141   3.34500   3.34741
 Alpha virt. eigenvalues --    3.35117   3.35421   3.36381   3.36716   3.36992
 Alpha virt. eigenvalues --    3.37412   3.37703   3.37936   3.38309   3.38660
 Alpha virt. eigenvalues --    3.38708   3.38833   3.39191   3.39711   3.39774
 Alpha virt. eigenvalues --    3.40428   3.40586   3.41316   3.41453   3.41726
[...]
              Bcc     0.0002     0.026     0.009     0.009  0.7954  0.5715 -0.2017
 
              Baa    -0.0001    -0.048    -0.017    -0.016 -0.6564  0.7311 -0.1862
     7 H(1)   Bbb    -0.0001    -0.047    -0.017    -0.016 -0.0836  0.1748  0.9810
              Bcc     0.0002     0.094     0.034     0.032  0.7498  0.6595 -0.0537
 
              Baa    -0.0002    -0.090    -0.032    -0.030 -0.3973  0.8499 -0.3462
     8 H(1)   Bbb    -0.0002    -0.088    -0.032    -0.029  0.0908  0.4118  0.9067
              Bcc     0.0003     0.178     0.064     0.059  0.9132  0.3288 -0.2408
 
              Baa    -0.0001    -0.056    -0.020    -0.019 -0.5437  0.7981 -0.2596
     9 H(1)   Bbb    -0.0001    -0.056    -0.020    -0.019  0.1538  0.3989  0.9040
              Bcc     0.0002     0.112     0.040     0.037  0.8250  0.4516 -0.3396
 
              Baa    -0.0001    -0.043    -0.015    -0.014 -0.6459  0.7382 -0.1948
    10 H(1)   Bbb    -0.0001    -0.043    -0.015    -0.014  0.0631  0.3059  0.9500
              Bcc     0.0002     0.086     0.031     0.029  0.7608  0.6013 -0.2442
 
              Baa    -0.0001    -0.006    -0.002    -0.002 -0.4903  0.7891 -0.3700
    11 N(14)  Bbb    -0.0001    -0.005    -0.002    -0.002 -0.2995  0.2461  0.9218
              Bcc     0.0003     0.011     0.004     0.004  0.8184  0.5628  0.1157
 
              Baa    -0.0002    -0.008    -0.003    -0.003  0.2501 -0.6597  0.7087
    12 N(14)  Bbb    -0.0002    -0.008    -0.003    -0.003 -0.3149  0.6368  0.7038
              Bcc     0.0004     0.015     0.006     0.005  0.9156  0.3992  0.0485
 
              Baa    -0.0002    -0.033    -0.012    -0.011  0.0833 -0.4660  0.8809
    13 C(13)  Bbb    -0.0002    -0.032    -0.011    -0.011 -0.2536  0.8449  0.4709
              Bcc     0.0005     0.065     0.023     0.022  0.9637  0.2626  0.0478
 
              Baa    -0.0002    -0.100    -0.036    -0.033 -0.0128 -0.3143  0.9492
    14 H(1)   Bbb    -0.0002    -0.098    -0.035    -0.033 -0.2035  0.9303  0.3053
              Bcc     0.0004     0.198     0.071     0.066  0.9790  0.1893  0.0759
 
              Baa    -0.0003    -0.145    -0.052    -0.048 -0.2264  0.7258 -0.6496
    15 H(1)   Bbb    -0.0003    -0.143    -0.051    -0.048 -0.1021  0.6456  0.7568
              Bcc     0.0005     0.288     0.103     0.096  0.9687  0.2377 -0.0721
 
              Baa    -0.0003    -0.176    -0.063    -0.059 -0.0632 -0.2826  0.9571
    16 H(1)   Bbb    -0.0003    -0.170    -0.061    -0.057 -0.2733  0.9273  0.2558
              Bcc     0.0006     0.346     0.123     0.115  0.9598  0.2455  0.1358
 
              Baa    -0.0002    -0.024    -0.009    -0.008  0.1881 -0.6069  0.7722
    17 C(13)  Bbb    -0.0002    -0.023    -0.008    -0.008 -0.4551  0.6429  0.6161
              Bcc     0.0004     0.047     0.017     0.016  0.8704  0.4673  0.1553
 
              Baa    -0.0037    -0.152    -0.054    -0.051  0.9485 -0.1818 -0.2593
    18 S(33)  Bbb    -0.0031    -0.128    -0.046    -0.043 -0.0134  0.7950 -0.6065
              Bcc     0.0068     0.281     0.100     0.094  0.3164  0.5787  0.7517
 
              Baa    -0.0009     0.062     0.022     0.021  0.9431 -0.3200  0.0907
    19 O(17)  Bbb    -0.0005     0.036     0.013     0.012 -0.2864 -0.6424  0.7108
              Bcc     0.0013    -0.097    -0.035    -0.032  0.1692  0.6963  0.6975
 
              Baa    -0.0007     0.054     0.019     0.018  0.8635 -0.0305 -0.5034
    20 O(17)  Bbb    -0.0006     0.046     0.016     0.015 -0.2880  0.7897 -0.5418
              Bcc     0.0014    -0.100    -0.036    -0.033  0.4140  0.6128  0.6731
 
              Baa    -0.0007    -0.090    -0.032    -0.030  0.0787 -0.5722  0.8163
    21 C(13)  Bbb    -0.0006    -0.076    -0.027    -0.025 -0.4998  0.6859  0.5289
              Bcc     0.0012     0.166     0.059     0.055  0.8625  0.4496  0.2321
 
              Baa    -0.0003    -0.043    -0.015    -0.014 -0.2934 -0.2512  0.9224
    22 C(13)  Bbb    -0.0003    -0.038    -0.013    -0.013 -0.5092  0.8577  0.0716
              Bcc     0.0006     0.080     0.029     0.027  0.8091  0.4486  0.3796
 
              Baa    -0.0004    -0.193    -0.069    -0.064 -0.6477  0.7509 -0.1288
    23 H(1)   Bbb    -0.0003    -0.137    -0.049    -0.046 -0.1961 -0.0009  0.9806
              Bcc     0.0006     0.330     0.118     0.110  0.7362  0.6604  0.1479
 
              Baa    -0.0003    -0.147    -0.053    -0.049  0.1094 -0.5822  0.8056
    24 H(1)   Bbb    -0.0002    -0.114    -0.041    -0.038  0.7800 -0.4522 -0.4327
              Bcc     0.0005     0.261     0.093     0.087  0.6162  0.6757  0.4046
 
              Baa    -0.0002    -0.028    -0.010    -0.009 -0.0324 -0.5415  0.8401
    25 C(13)  Bbb    -0.0002    -0.023    -0.008    -0.008 -0.4939  0.7394  0.4575
              Bcc     0.0004     0.051     0.018     0.017  0.8689  0.4001  0.2914
 
              Baa    -0.0004    -0.231    -0.082    -0.077 -0.2698 -0.2126  0.9392
    26 H(1)   Bbb    -0.0004    -0.197    -0.070    -0.066 -0.4388  0.8953  0.0766
              Bcc     0.0008     0.428     0.153     0.143  0.8571  0.3915  0.3348
 
              Baa    -0.0003    -0.160    -0.057    -0.054 -0.6007  0.1117  0.7916
    27 H(1)   Bbb    -0.0003    -0.138    -0.049    -0.046 -0.2643  0.9067 -0.3285
              Bcc     0.0006     0.298     0.106     0.099  0.7545  0.4066  0.5152
 
              Baa    -0.0002    -0.022    -0.008    -0.007 -0.3645 -0.0350  0.9305
    28 C(13)  Bbb    -0.0002    -0.020    -0.007    -0.007 -0.2780  0.9578 -0.0729
              Bcc     0.0003     0.043     0.015     0.014  0.8887  0.2852  0.3589
 
              Baa    -0.0002    -0.083    -0.030    -0.028 -0.2809 -0.2166  0.9350
    29 H(1)   Bbb    -0.0001    -0.078    -0.028    -0.026 -0.5234  0.8511  0.0400
              Bcc     0.0003     0.161     0.057     0.054  0.8044  0.4781  0.3525
 
              Baa    -0.0002    -0.108    -0.038    -0.036 -0.3221 -0.0927  0.9422
    30 H(1)   Bbb    -0.0002    -0.102    -0.037    -0.034 -0.2344  0.9720  0.0155
              Bcc     0.0004     0.210     0.075     0.070  0.9172  0.2158  0.3348
 
              Baa    -0.0002    -0.081    -0.029    -0.027 -0.4958  0.0702  0.8656
    31 H(1)   Bbb    -0.0001    -0.078    -0.028    -0.026 -0.2083  0.9580 -0.1970
              Bcc     0.0003     0.159     0.057     0.053  0.8431  0.2780  0.4603
 
              Baa    -0.0001    -0.015    -0.005    -0.005 -0.2453 -0.2007  0.9484
    32 C(13)  Bbb    -0.0001    -0.015    -0.005    -0.005 -0.3211  0.9399  0.1159
              Bcc     0.0002     0.029     0.010     0.010  0.9147  0.2761  0.2950
 
              Baa    -0.0001    -0.012    -0.004    -0.004 -0.3424  0.0269  0.9392
    33 C(13)  Bbb    -0.0001    -0.012    -0.004    -0.004 -0.1481  0.9855 -0.0822
              Bcc     0.0002     0.024     0.009     0.008  0.9278  0.1673  0.3335
 
              Baa    -0.0001    -0.059    -0.021    -0.020 -0.1025 -0.3200  0.9419
    34 H(1)   Bbb    -0.0001    -0.058    -0.021    -0.019 -0.3333  0.9032  0.2706
              Bcc     0.0002     0.117     0.042     0.039  0.9372  0.2862  0.1992
 
              Baa    -0.0001    -0.049    -0.018    -0.016 -0.2852 -0.1378  0.9485
    35 H(1)   Bbb    -0.0001    -0.048    -0.017    -0.016 -0.3688  0.9292  0.0241
              Bcc     0.0002     0.097     0.035     0.032  0.8847  0.3429  0.3158
 
              Baa    -0.0001    -0.038    -0.014    -0.013 -0.2956 -0.0253  0.9550
    36 H(1)   Bbb    -0.0001    -0.038    -0.014    -0.013 -0.1686  0.9853 -0.0261
              Bcc     0.0001     0.076     0.027     0.025  0.9403  0.1688  0.2955
 
              Baa    -0.0001    -0.056    -0.020    -0.019 -0.3076 -0.0284  0.9511
    37 H(1)   Bbb    -0.0001    -0.055    -0.020    -0.018 -0.0976  0.9952 -0.0019
              Bcc     0.0002     0.111     0.039     0.037  0.9465  0.0934  0.3089
 
              Baa    -0.0001    -0.046    -0.016    -0.015 -0.4295  0.0483  0.9018
    38 H(1)   Bbb    -0.0001    -0.045    -0.016    -0.015 -0.1250  0.9858 -0.1123
              Bcc     0.0002     0.091     0.033     0.031  0.8944  0.1610  0.4174
 
              Baa    -0.0031    -0.417    -0.149    -0.139  0.2130 -0.3678  0.9052
    39 C(13)  Bbb    -0.0026    -0.353    -0.126    -0.118 -0.4810  0.7669  0.4248
              Bcc     0.0057     0.770     0.275     0.257  0.8505  0.5259  0.0135
 
              Baa    -0.0014    -0.740    -0.264    -0.247 -0.0900 -0.3635  0.9272
    40 H(1)   Bbb    -0.0007    -0.372    -0.133    -0.124 -0.5275  0.8071  0.2652
              Bcc     0.0021     1.112     0.397     0.371  0.8448  0.4652  0.2644
 
              Baa    -0.0071    -0.947    -0.338    -0.316  0.8000 -0.0032 -0.6000
    41 C(13)  Bbb    -0.0070    -0.935    -0.334    -0.312 -0.4649  0.6287 -0.6233
              Bcc     0.0140     1.883     0.672     0.628  0.3792  0.7776  0.5015
 
              Baa    -0.0024    -1.282    -0.458    -0.428  0.8237 -0.5667  0.0164
    42 H(1)   Bbb    -0.0016    -0.842    -0.300    -0.281  0.4485  0.6336 -0.6304
              Bcc     0.0040     2.124     0.758     0.708  0.3469  0.5266  0.7761
 
              Baa    -0.0184    -2.463    -0.879    -0.822  0.2636 -0.5650  0.7818
    43 C(13)  Bbb    -0.0156    -2.095    -0.748    -0.699 -0.3583  0.6952  0.6232
              Bcc     0.0340     4.558     1.626     1.520  0.8956  0.4444  0.0192
 
              Baa    -0.0058    -3.118    -1.112    -1.040  0.7461 -0.6270  0.2240
    44 H(1)   Bbb    -0.0010    -0.539    -0.192    -0.180 -0.1070  0.2191  0.9698
              Bcc     0.0069     3.657     1.305     1.220  0.6572  0.7476 -0.0964
 
              Baa    -0.0059    -3.121    -1.114    -1.041 -0.2928 -0.0969  0.9512
    45 H(1)   Bbb    -0.0013    -0.705    -0.252    -0.235 -0.4506  0.8914 -0.0479
              Bcc     0.0072     3.826     1.365     1.276  0.8433  0.4427  0.3047
 
              Baa    -0.0012    -0.619    -0.221    -0.207  0.7716 -0.6351 -0.0363
    46 H(1)   Bbb    -0.0007    -0.375    -0.134    -0.125  0.0286 -0.0224  0.9993
              Bcc     0.0019     0.995     0.355     0.332  0.6355  0.7721 -0.0009
 
              Baa    -0.1025   -13.758    -4.909    -4.589  0.9453  0.0072 -0.3260
    47 C(13)  Bbb    -0.0990   -13.281    -4.739    -4.430  0.2828 -0.5161  0.8085
              Bcc     0.2015    27.039     9.648     9.019  0.1624  0.8565  0.4900
 
              Baa    -0.0146    -7.808    -2.786    -2.605 -0.6578 -0.2705  0.7029
    48 H(1)   Bbb    -0.0051    -2.701    -0.964    -0.901  0.6072  0.3618  0.7074
              Bcc     0.0197    10.509     3.750     3.505 -0.4457  0.8922 -0.0737
 
              Baa    -0.0146    -7.805    -2.785    -2.604  0.9142 -0.3087  0.2627
    49 H(1)   Bbb    -0.0046    -2.478    -0.884    -0.827  0.3615  0.9140 -0.1841
              Bcc     0.0193    10.283     3.669     3.430 -0.1833  0.2633  0.9472
 
              Baa    -0.0021    -0.276    -0.099    -0.092  0.3591 -0.2671  0.8943
    50 C(13)  Bbb    -0.0019    -0.248    -0.089    -0.083  0.9215 -0.0503 -0.3850
              Bcc     0.0039     0.525     0.187     0.175  0.1478  0.9624  0.2281
 
              Baa    -0.0008    -0.109    -0.039    -0.036  0.8577  0.1342 -0.4963
    51 C(13)  Bbb    -0.0007    -0.099    -0.035    -0.033  0.4967  0.0331  0.8673
              Bcc     0.0015     0.208     0.074     0.069 -0.1328  0.9904  0.0382
 
              Baa    -0.0006    -0.086    -0.031    -0.029  0.2954 -0.2099  0.9320
    52 C(13)  Bbb    -0.0006    -0.074    -0.027    -0.025  0.9455  0.2038 -0.2538
              Bcc     0.0012     0.160     0.057     0.054 -0.1366  0.9562  0.2587
 
              Baa    -0.0005    -0.069    -0.025    -0.023 -0.4817 -0.0116  0.8762
    53 C(13)  Bbb    -0.0005    -0.068    -0.024    -0.023  0.8528  0.2238  0.4718
              Bcc     0.0010     0.137     0.049     0.046 -0.2016  0.9746 -0.0979
 
              Baa    -0.0004    -0.048    -0.017    -0.016  0.8337  0.3533 -0.4245
    54 C(13)  Bbb    -0.0003    -0.045    -0.016    -0.015  0.4945 -0.1352  0.8586
              Bcc     0.0007     0.093     0.033     0.031 -0.2460  0.9257  0.2874
 
              Baa    -0.0003    -0.044    -0.016    -0.015  0.9337  0.2949 -0.2030
    55 C(13)  Bbb    -0.0003    -0.041    -0.015    -0.014  0.1869  0.0822  0.9789
              Bcc     0.0006     0.085     0.030     0.028 -0.3054  0.9520 -0.0217
 
              Baa    -0.0005    -0.285    -0.102    -0.095  0.9512  0.1199 -0.2842
    56 H(1)   Bbb    -0.0005    -0.271    -0.097    -0.090  0.2399  0.2915  0.9260
              Bcc     0.0010     0.555     0.198     0.185 -0.1939  0.9490 -0.2485
 
              Baa    -0.0003    -0.039    -0.014    -0.013 -0.0727 -0.1743  0.9820
    57 C(13)  Bbb    -0.0002    -0.033    -0.012    -0.011  0.9550  0.2717  0.1189
              Bcc     0.0005     0.072     0.026     0.024 -0.2875  0.9465  0.1467
 
              Baa    -0.0003    -0.150    -0.053    -0.050 -0.1430 -0.4367  0.8881
    58 H(1)   Bbb    -0.0003    -0.145    -0.052    -0.048  0.9618  0.1504  0.2288
              Bcc     0.0006     0.294     0.105     0.098 -0.2335  0.8869  0.3985
 
              Baa    -0.0002    -0.128    -0.046    -0.043  0.7144  0.1789 -0.6765
    59 H(1)   Bbb    -0.0002    -0.127    -0.045    -0.042  0.6167  0.2958  0.7295
              Bcc     0.0005     0.255     0.091     0.085 -0.3306  0.9384 -0.1010
 
              Baa    -0.0002    -0.104    -0.037    -0.035 -0.2853 -0.2662  0.9207
    60 H(1)   Bbb    -0.0002    -0.101    -0.036    -0.034  0.8962  0.2665  0.3548
              Bcc     0.0004     0.206     0.073     0.069 -0.3398  0.9263  0.1625
 
              Baa    -0.0017    -0.066    -0.024    -0.022  0.7354 -0.0398 -0.6764
    61 N(14)  Bbb    -0.0012    -0.047    -0.017    -0.016  0.6740 -0.0589  0.7363
              Bcc     0.0029     0.113     0.040     0.038  0.0691  0.9975  0.0165
 
              Baa    -0.0009    -0.034    -0.012    -0.011  0.6830  0.3909 -0.6170
    62 N(14)  Bbb    -0.0008    -0.031    -0.011    -0.010  0.7232 -0.2442  0.6460
              Bcc     0.0017     0.065     0.023     0.022 -0.1018  0.8874  0.4495
 
              Baa    -0.0006    -0.081    -0.029    -0.027  0.5511 -0.5224  0.6507
    63 C(13)  Bbb    -0.0005    -0.073    -0.026    -0.024  0.8344  0.3363 -0.4367
              Bcc     0.0011     0.154     0.055     0.051  0.0093  0.7836  0.6212
 
              Baa    -0.0005    -0.274    -0.098    -0.091  0.3564 -0.5946  0.7207
    64 H(1)   Bbb    -0.0005    -0.260    -0.093    -0.087  0.9247  0.3350 -0.1809
              Bcc     0.0010     0.534     0.190     0.178 -0.1339  0.7309  0.6692
 
              Baa    -0.0004    -0.206    -0.073    -0.069  0.2867 -0.5672  0.7721
    65 H(1)   Bbb    -0.0004    -0.193    -0.069    -0.065  0.9560  0.1164 -0.2694
              Bcc     0.0007     0.399     0.143     0.133  0.0629  0.8153  0.5756
 
              Baa    -0.0007    -0.375    -0.134    -0.125 -0.5916  0.6346 -0.4974
    66 H(1)   Bbb    -0.0006    -0.337    -0.120    -0.112  0.7961  0.3622 -0.4848
              Bcc     0.0013     0.712     0.254     0.237  0.1275  0.6828  0.7194
 
              Baa    -0.9553   -39.166   -13.975   -13.064 -0.3181  0.7915  0.5219
    67 S(33)  Bbb    -0.8907   -36.520   -13.031   -12.182  0.1513 -0.5011  0.8521
              Bcc     1.8460    75.686    27.007    25.246  0.9359  0.3500  0.0397
 
              Baa    -0.6051    43.788    15.625    14.606 -0.2736  0.5149  0.8124
    68 O(17)  Bbb    -0.5655    40.922    14.602    13.650 -0.4356  0.6867 -0.5819
              Bcc     1.1707   -84.710   -30.227   -28.256  0.8576  0.5131 -0.0364
 
              Baa    -0.5991    43.350    15.468    14.460 -0.3876  0.9092  0.1521
    69 O(17)  Bbb    -0.5604    40.551    14.469    13.526 -0.1588 -0.2284  0.9605
              Bcc     1.1595   -83.901   -29.938   -27.986  0.9081  0.3481  0.2329
 

 ---------------------------------------------------------------------------------

 Unable to Open any file for archive entry.
 1\1\GINC-CLUSTER\SP\UM062X\def2TZVP\C26H33N4O4S2(2)\KJIANG\21-Nov-2025
 \0\\# scrf=(solvent=n,n-dimethylformamide) def2tzvp m062x geom=allchec
 k\\Title Card Required\\0,2\C,0,-5.045396665,-2.7571059172,2.035809367
 2\C,0,-4.7180429653,-1.6569999266,1.2367547845\C,0,-4.6296523795,-0.37
 41828249,1.8077572065\C,0,-4.8708084913,-0.1386521372,3.1621963361\C,0
 ,-5.1946489024,-1.2428267045,3.9368374884\C,0,-5.279773001,-2.53426904
 06,3.3829178572\H,0,-5.1111103919,-3.747343468,1.5977528936\H,0,-4.816
 3804206,0.8543541767,3.5973903898\H,0,-5.3898020653,-1.1065403783,4.99
 569245\H,0,-5.5364862362,-3.3681532019,4.0280955966\N,0,-4.4441996857,
 -1.5940003274,-0.1178302277\N,0,-4.2772956995,0.4639127146,0.763570840
 2\C,0,-4.134160673,1.9008647017,0.8793098259\H,0,-5.0557570771,2.42218
 7678,0.5985254037\H,0,-3.892356039,2.1415935013,1.9160663199\H,0,-3.31
 73123435,2.2579149675,0.2507328438\C,0,-4.2019936805,-0.3316002166,-0.
 3637528399\S,0,0.2660493009,-0.6392687043,-1.7496668135\O,0,0.89317386
 29,-1.958382466,-1.6769377313\O,0,0.492540393,0.2059098271,-2.92848919
 55\C,0,-1.5038472496,-0.852643887,-1.535503274\C,0,-2.3027026677,0.410
 3114648,-1.8364690508\H,0,-1.6613537844,-1.2375348755,-0.5226687618\H,
 0,-1.7530220723,-1.6618595508,-2.230932817\C,0,-3.8181684464,0.1575185
 868,-1.7339786035\H,0,-2.0121848594,1.2173256629,-1.1513594176\H,0,-2.
 0579753238,0.7527094013,-2.8471432291\C,0,-4.6300276652,1.3613527902,-
 2.2366795983\H,0,-4.0548895549,-0.6951595563,-2.3817418287\H,0,-4.3000
 30141,2.2861048909,-1.7463239099\H,0,-4.4023794448,1.4939188615,-3.302
 1747377\C,0,-6.1383847353,1.1942593942,-2.0576739966\C,0,-6.9193659011
 ,2.372483593,-2.6331487294\H,0,-6.3734247329,1.0787844947,-0.991446777
 4\H,0,-6.4554472213,0.2600536266,-2.5374248346\H,0,-7.9960549786,2.242
 4889307,-2.495868541\H,0,-6.6295052227,3.3096904416,-2.1452274077\H,0,
 -6.7277794471,2.4842388263,-3.705290951\C,0,0.7817076363,0.32273844,-0
 .3165661914\H,0,0.1061486131,1.1823508465,-0.2582854803\C,0,2.23621767
 32,0.7981264916,-0.468957571\H,0,2.361615159,1.2059198396,-1.478476307
 7\C,0,2.4728465962,1.925512336,0.5503796735\H,0,2.251717876,1.56320016
 82,1.5579990013\H,0,1.7995938112,2.7571724731,0.3159388444\H,0,0.66978
 84743,-0.3060132468,0.5715160758\C,0,3.9164696074,2.4192913916,0.51880
 5798\H,0,4.5979098776,1.6924192188,0.9646064426\H,0,4.2487662052,2.699
 4937823,-0.4843633502\C,0,3.2018148673,-0.3328844936,-0.2294240959\C,0
 ,4.420075223,-1.7505711847,0.8026692481\C,0,4.5976722685,-1.9953551942
 ,-0.5716306444\C,0,5.1022368001,-2.5298479936,1.7433458793\C,0,5.43050
 75471,-3.0049754503,-1.0566476889\C,0,5.9337185041,-3.5325343883,1.271
 841736\H,0,4.9712580573,-2.3451522386,2.8043036664\C,0,6.0942687009,-3
 .7676779848,-0.1080734083\H,0,5.5498256206,-3.1890937225,-2.1197040326
 \H,0,6.4737671377,-4.1556243125,1.977504354\H,0,6.7517362833,-4.566771
 2248,-0.435365794\N,0,3.5415074087,-0.6987858384,0.9820824701\N,0,3.81
 29715602,-1.062013567,-1.2172941337\C,0,3.6329169323,-1.0182114,-2.656
 1698917\H,0,4.6025359569,-0.8720582266,-3.1408544482\H,0,3.1787690943,
 -1.9523260516,-2.9948962815\H,0,2.9614713314,-0.2052912837,-2.93142219
 21\S,0,4.0398297764,3.9487901444,1.516758305\O,0,3.6404307242,3.578538
 7018,2.8866661863\O,0,3.3069322853,4.9847086186,0.7636855018\\Version=
 ES64L-G16RevC.02\State=2-A\HF=-2326.8661538\S2=0.756884\S2-1=0.\S2A=0.
 750032\RMSD=2.143e-09\Dipole=-0.9905706,1.3641623,-1.3277799\Quadrupol
 e=13.6218801,-14.2517224,0.6298423,-20.3739786,-13.4452567,-6.5524393\
 PG=C01 [X(C26H33N4O4S2)]\\@
 The archive entry for this job was punched.


 DO YOU KNOW THAT THE LETTERS IN "EPISCOPAL", WHEN
 REARRANGED, SPELL "PEPSI COLA"?
 Job cpu time:       0 days  7 hours 59 minutes 50.3 seconds.
 Elapsed time:       0 days  0 hours  6 minutes  9.9 seconds.
 File lengths (MBytes):  RWF=   2001 Int=      0 D2E=      0 Chk=    153 Scr=      1
 Normal termination of Gaussian 16 at Fri Nov 21 18:38:09 2025.
