 Entering Gaussian System, Link 0=g16
 Initial command:
 /public/software/g16/l1.exe "/tmp/Gau-11238.inp" -scrdir="/tmp/"
 Entering Link 1 = /public/software/g16/l1.exe PID=     11239.
  
 Copyright (c) 1988-2021, Gaussian, Inc.  All Rights Reserved.
  
 This is part of the Gaussian(R) 16 program.  It is based on
 the Gaussian(R) 09 system (copyright 2009, Gaussian, Inc.),
 the Gaussian(R) 03 system (copyright 2003, Gaussian, Inc.),
 the Gaussian(R) 98 system (copyright 1998, Gaussian, Inc.),
 the Gaussian(R) 94 system (copyright 1995, Gaussian, Inc.),
 the Gaussian 92(TM) system (copyright 1992, Gaussian, Inc.),
 the Gaussian 90(TM) system (copyright 1990, Gaussian, Inc.),
 the Gaussian 88(TM) system (copyright 1988, Gaussian, Inc.),
 the Gaussian 86(TM) system (copyright 1986, Carnegie Mellon
 University), and the Gaussian 82(TM) system (copyright 1983,
 Carnegie Mellon University). Gaussian is a federally registered
 trademark of Gaussian, Inc.
  
 This software contains proprietary and confidential information,
 including trade secrets, belonging to Gaussian, Inc.
  
 This software is provided under written license and may be
 used, copied, transmitted, or stored only in accord with that
 written license.
  
 The following legend is applicable only to US Government
 contracts under FAR:
  
                    RESTRICTED RIGHTS LEGEND
  
 Use, reproduction and disclosure by the US Government is
 subject to restrictions as set forth in subparagraphs (a)
 and (c) of the Commercial Computer Software - Restricted
 Rights clause in FAR 52.227-19.
  
 Gaussian, Inc.
 340 Quinnipiac St., Bldg. 40, Wallingford CT 06492
  
  
 ---------------------------------------------------------------
 Warning -- This program may not be used in any manner that
 competes with the business of Gaussian, Inc. or will provide
 assistance to any competitor of Gaussian, Inc.  The licensee
 of this program is prohibited from giving any competitor of
 Gaussian, Inc. access to this program.  By using this program,
 the user acknowledges that Gaussian, Inc. is engaged in the
 business of creating and licensing software in the field of
 computational chemistry and represents and warrants to the
 licensee that it is not a competitor of Gaussian, Inc. and that
 it will not use this program in any manner prohibited above.
 ---------------------------------------------------------------
  

 Cite this work as:
 Gaussian 16, Revision C.02,
 M. J. Frisch, G. W. Trucks, H. B. Schlegel, G. E. Scuseria, 
 M. A. Robb, J. R. Cheeseman, G. Scalmani, V. Barone, 
 G. A. Petersson, H. Nakatsuji, X. Li, M. Caricato, A. V. Marenich, 
 J. Bloino, B. G. Janesko, R. Gomperts, B. Mennucci, H. P. Hratchian, 
 J. V. Ortiz, A. F. Izmaylov, J. L. Sonnenberg, D. Williams-Young, 
 F. Ding, F. Lipparini, F. Egidi, J. Goings, B. Peng, A. Petrone, 
 T. Henderson, D. Ranasinghe, V. G. Zakrzewski, J. Gao, N. Rega, 
 G. Zheng, W. Liang, M. Hada, M. Ehara, K. Toyota, R. Fukuda, 
 J. Hasegawa, M. Ishida, T. Nakajima, Y. Honda, O. Kitao, H. Nakai, 
 T. Vreven, K. Throssell, J. A. Montgomery, Jr., J. E. Peralta, 
 F. Ogliaro, M. J. Bearpark, J. J. Heyd, E. N. Brothers, K. N. Kudin, 
 V. N. Staroverov, T. A. Keith, R. Kobayashi, J. Normand, 
 K. Raghavachari, A. P. Rendell, J. C. Burant, S. S. Iyengar, 
 J. Tomasi, M. Cossi, J. M. Millam, M. Klene, C. Adamo, R. Cammi, 
 J. W. Ochterski, R. L. Martin, K. Morokuma, O. Farkas, 
 J. B. Foresman, and D. J. Fox, Gaussian, Inc., Wallingford CT, 2019.
 
 ******************************************
 Gaussian 16:  ES64L-G16RevC.02  7-Dec-2021
                21-Nov-2025 
 ******************************************
 %nprocshared=96
 Will use up to   96 processors via shared memory.
 %mem=50GB
 %chk=M1.chk
 -------------------------------------------------------------------
 # scrf=(solvent=n,n-dimethylformamide) def2tzvp m062x geom=allcheck
 -------------------------------------------------------------------
 1/29=7,38=1,172=1/1;
 2/12=2,40=1/2;
 3/5=44,7=101,11=2,14=-4,25=1,30=1,70=2201,72=148,74=-55/1,2,3;
 4//1;
 5/5=2,38=5,53=148/2;
 6/7=2,8=2,9=2,10=2,28=1/1;
 99/5=1,9=1/99;
 Structure from the checkpoint file:  "M1.chk"
 -------------------
 Title Card Required
 -------------------
 Charge =  0 Multiplicity = 1
 Redundant internal coordinates found in file.  (old form).
 C,0,-3.1703795383,2.5278382058,-0.4895234696
 C,0,-2.5722991881,1.280890654,-0.2715208859
 C,0,-3.354776562,0.1845522632,0.1453649573
 C,0,-4.7314167938,0.285512181,0.3630511479
 C,0,-5.3011690883,1.5279540266,0.1419172371
 C,0,-4.5333583529,2.63388907,-0.2789169645
 H,0,-2.5701797398,3.3718129321,-0.8115833263
 H,0,-5.325490477,-0.5600470922,0.6938355424
 H,0,-6.3673511631,1.655623029,0.2990551895
 H,0,-5.0278001898,3.5865466787,-0.4376342022
 N,0,-2.4761811323,-0.8746952396,0.2547775342
 N,0,-1.246887559,0.8998016584,-0.4011005971
 C,0,-1.2577366237,-0.3608060877,-0.0775718103
 C,0,-2.7751464032,-2.228919159,0.6935160245
 H,0,-2.1077574071,-2.926664093,0.1854551982
 H,0,-2.6478270421,-2.321687739,1.7743225016
 H,0,-3.8043789013,-2.460468268,0.4150610614
 S,0,0.2029623758,-1.3853878664,-0.0342392396
 O,0,0.0975713724,-2.3684715013,-1.11203134
 O,0,0.3590544623,-1.8549063075,1.341573644
 C,0,1.5035505495,-0.2187104227,-0.4238962448
 C,0,2.8369236697,-0.9737049467,-0.4497748563
 H,0,1.4797783661,0.5577567934,0.3439372488
 H,0,1.2492698422,0.2260473287,-1.3894019509
 C,0,3.9525302756,-0.0381696764,-0.8208363804
 H,0,3.0225148676,-1.4170504675,0.533692237
 H,0,2.7633215712,-1.7910049246,-1.1770403123
 C,0,4.9637270551,0.2731764709,-0.0169937837
 H,0,3.8961418765,0.4046982002,-1.8150708272
 H,0,5.7469783719,0.9574898332,-0.3263449367
 H,0,5.0454817258,-0.1520800336,0.980157354
 Recover connectivity data from disk.
                           ----------------------------
                           !    Current Parameters    !
                           ! (Angstroms and Degrees)  !
 --------------------------                            --------------------------
 ! Name  Definition              Value                                          !
 --------------------------------------------------------------------------------
 ! R1    R(1,2)                  1.4                                            !
 ! R2    R(1,6)                  1.3832                                         !
 ! R3    R(1,7)                  1.0846                                         !
 ! R4    R(2,3)                  1.41                                           !
 ! R5    R(2,12)                 1.3852                                         !
 ! R6    R(3,4)                  1.3974                                         !
 ! R7    R(3,11)                 1.3805                                         !
 ! R8    R(4,5)                  1.3846                                         !
 ! R9    R(4,8)                  1.085                                          !
 ! R10   R(5,6)                  1.4106                                         !
 ! R11   R(5,9)                  1.0852                                         !
 ! R12   R(6,10)                 1.085                                          !
 ! R13   R(11,13)                1.3635                                         !
 ! R14   R(11,14)                1.4546                                         !
 ! R15   R(12,13)                1.3015                                         !
 ! R16   R(13,18)                1.7847                                         !
 ! R17   R(14,15)                1.091                                          !
 ! R18   R(14,16)                1.0922                                         !
 ! R19   R(14,17)                1.0911                                         !
 ! R20   R(18,19)                1.4626                                         !
 ! R21   R(18,20)                1.4621                                         !
 ! R22   R(18,21)                1.7901                                         !
 ! R23   R(21,22)                1.5325                                         !
 ! R24   R(21,23)                1.0923                                         !
 ! R25   R(21,24)                1.093                                          !
 ! R26   R(22,25)                1.5025                                         !
 ! R27   R(22,26)                1.0946                                         !
 ! R28   R(22,27)                1.0965                                         !
 ! R29   R(25,28)                1.3288                                         !
 ! R30   R(25,29)                1.0899                                         !
 ! R31   R(28,30)                1.0851                                         !
 ! R32   R(28,31)                1.0871                                         !
 ! A1    A(2,1,6)              117.7435                                         !
 ! A2    A(2,1,7)              120.1931                                         !
 ! A3    A(6,1,7)              122.0634                                         !
 ! A4    A(1,2,3)              120.0995                                         !
 ! A5    A(1,2,12)             129.7339                                         !
 ! A6    A(3,2,12)             110.1666                                         !
 ! A7    A(2,3,4)              122.4523                                         !
 ! A8    A(2,3,11)             105.4767                                         !
 ! A9    A(4,3,11)             132.0706                                         !
 ! A10   A(3,4,5)              116.4441                                         !
 ! A11   A(3,4,8)              122.0439                                         !
 ! A12   A(5,4,8)              121.5109                                         !
 ! A13   A(4,5,6)              121.8156                                         !
 ! A14   A(4,5,9)              119.1238                                         !
 ! A15   A(6,5,9)              119.0604                                         !
 ! A16   A(1,6,5)              121.4444                                         !
 ! A17   A(1,6,10)             119.6092                                         !
 ! A18   A(5,6,10)             118.9463                                         !
 ! A19   A(3,11,13)            105.0827                                         !
 ! A20   A(3,11,14)            127.4041                                         !
 ! A21   A(13,11,14)           127.4504                                         !
 ! A22   A(2,12,13)            103.6059                                         !
 ! A23   A(11,13,12)           115.6635                                         !
 ! A24   A(11,13,18)           120.6029                                         !
 ! A25   A(12,13,18)           123.7281                                         !
 ! A26   A(11,14,15)           109.2213                                         !
 ! A27   A(11,14,16)           110.707                                          !
 ! A28   A(11,14,17)           108.3295                                         !
 ! A29   A(15,14,16)           109.583                                          !
 ! A30   A(15,14,17)           108.8117                                         !
 ! A31   A(16,14,17)           110.1498                                         !
 ! A32   A(13,18,19)           107.999                                          !
 ! A33   A(13,18,20)           107.1323                                         !
 ! A34   A(13,18,21)           102.4271                                         !
 ! A35   A(19,18,20)           119.0301                                         !
 ! A36   A(19,18,21)           109.2695                                         !
 ! A37   A(20,18,21)           109.6671                                         !
 ! A38   A(18,21,22)           108.3446                                         !
 ! A39   A(18,21,23)           107.126                                          !
 ! A40   A(18,21,24)           106.7654                                         !
 ! A41   A(22,21,23)           112.3972                                         !
 ! A42   A(22,21,24)           112.8278                                         !
 ! A43   A(23,21,24)           109.0651                                         !
 ! A44   A(21,22,25)           110.0866                                         !
 ! A45   A(21,22,26)           109.3829                                         !
 ! A46   A(21,22,27)           108.6634                                         !
 ! A47   A(25,22,26)           110.3762                                         !
 ! A48   A(25,22,27)           110.4964                                         !
 ! A49   A(26,22,27)           107.7821                                         !
 ! A50   A(22,25,28)           124.1625                                         !
 ! A51   A(22,25,29)           116.097                                          !
 ! A52   A(28,25,29)           119.7378                                         !
 ! A53   A(25,28,30)           121.6418                                         !
 ! A54   A(25,28,31)           121.3631                                         !
 ! A55   A(30,28,31)           116.9942                                         !
 ! D1    D(6,1,2,3)              0.1467                                         !
 ! D2    D(6,1,2,12)          -179.8283                                         !
 ! D3    D(7,1,2,3)           -179.912                                          !
 ! D4    D(7,1,2,12)             0.1131                                         !
 ! D5    D(2,1,6,5)              0.0344                                         !
 ! D6    D(2,1,6,10)           179.9256                                         !
 ! D7    D(7,1,6,5)           -179.9058                                         !
 ! D8    D(7,1,6,10)            -0.0146                                         !
 ! D9    D(1,2,3,4)             -0.3109                                         !
 ! D10   D(1,2,3,11)           179.5068                                         !
 ! D11   D(12,2,3,4)           179.6686                                         !
 ! D12   D(12,2,3,11)           -0.5137                                         !
 ! D13   D(1,2,12,13)         -179.8897                                         !
 ! D14   D(3,2,12,13)            0.1333                                         !
 ! D15   D(2,3,4,5)              0.2715                                         !
 ! D16   D(2,3,4,8)           -179.35                                           !
 ! D17   D(11,3,4,5)          -179.4918                                         !
 ! D18   D(11,3,4,8)             0.8867                                         !
 ! D19   D(2,3,11,13)            0.6615                                         !
 ! D20   D(2,3,11,14)          177.9341                                         !
 ! D21   D(4,3,11,13)         -179.5457                                         !
 ! D22   D(4,3,11,14)           -2.2731                                         !
 ! D23   D(3,4,5,6)             -0.0843                                         !
 ! D24   D(3,4,5,9)           -179.921                                          !
 ! D25   D(8,4,5,6)            179.5392                                         !
 ! D26   D(8,4,5,9)             -0.2974                                         !
 ! D27   D(4,5,6,1)             -0.0664                                         !
 ! D28   D(4,5,6,10)          -179.9583                                         !
 ! D29   D(9,5,6,1)            179.7704                                         !
 ! D30   D(9,5,6,10)            -0.1215                                         !
 ! D31   D(3,11,13,12)          -0.6521                                         !
 ! D32   D(3,11,13,18)         178.526                                          !
 ! D33   D(14,11,13,12)       -177.923                                          !
 ! D34   D(14,11,13,18)          1.2552                                         !
 ! D35   D(3,11,14,15)         149.0207                                         !
 ! D36   D(3,11,14,16)         -90.2311                                         !
 ! D37   D(3,11,14,17)          30.6448                                         !
 ! D38   D(13,11,14,15)        -34.2972                                         !
 ! D39   D(13,11,14,16)         86.4511                                         !
 ! D40   D(13,11,14,17)       -152.6731                                         !
 ! D41   D(2,12,13,11)           0.3252                                         !
 ! D42   D(2,12,13,18)        -178.8242                                         !
 ! D43   D(11,13,18,19)         68.8463                                         !
 ! D44   D(11,13,18,20)        -60.5057                                         !
 ! D45   D(11,13,18,21)       -175.8819                                         !
 ! D46   D(12,13,18,19)       -112.0444                                         !
 ! D47   D(12,13,18,20)        118.6036                                         !
 ! D48   D(12,13,18,21)          3.2274                                         !
 ! D49   D(13,18,21,22)       -178.915                                          !
 ! D50   D(13,18,21,23)         59.6035                                         !
 ! D51   D(13,18,21,24)        -57.1274                                         !
 ! D52   D(19,18,21,22)        -64.5701                                         !
 ! D53   D(19,18,21,23)        173.9484                                         !
 ! D54   D(19,18,21,24)         57.2175                                         !
 ! D55   D(20,18,21,22)         67.5636                                         !
 ! D56   D(20,18,21,23)        -53.9179                                         !
 ! D57   D(20,18,21,24)       -170.6488                                         !
 ! D58   D(18,21,22,25)        178.0485                                         !
 ! D59   D(18,21,22,26)        -60.5077                                         !
 ! D60   D(18,21,22,27)         56.9149                                         !
 ! D61   D(23,21,22,25)        -63.7742                                         !
 ! D62   D(23,21,22,26)         57.6696                                         !
 ! D63   D(23,21,22,27)        175.0922                                         !
 ! D64   D(24,21,22,25)         60.0598                                         !
 ! D65   D(24,21,22,26)       -178.4964                                         !
 ! D66   D(24,21,22,27)        -61.0738                                         !
 ! D67   D(21,22,25,28)        116.2421                                         !
 ! D68   D(21,22,25,29)        -63.1547                                         !
 ! D69   D(26,22,25,28)         -4.6074                                         !
 ! D70   D(26,22,25,29)        175.9958                                         !
 ! D71   D(27,22,25,28)       -123.7276                                         !
 ! D72   D(27,22,25,29)         56.8757                                         !
 ! D73   D(22,25,28,30)       -179.7849                                         !
 ! D74   D(22,25,28,31)          0.5561                                         !
 ! D75   D(29,25,28,30)         -0.4089                                         !
 ! D76   D(29,25,28,31)        179.9321                                         !
 --------------------------------------------------------------------------------
                          Input orientation:                          
 ---------------------------------------------------------------------
 Center     Atomic      Atomic             Coordinates (Angstroms)
 Number     Number       Type             X           Y           Z
 ---------------------------------------------------------------------
      1          6           0       -3.170380    2.527838   -0.489523
      2          6           0       -2.572299    1.280891   -0.271521
      3          6           0       -3.354777    0.184552    0.145365
      4          6           0       -4.731417    0.285512    0.363051
      5          6           0       -5.301169    1.527954    0.141917
      6          6           0       -4.533358    2.633889   -0.278917
      7          1           0       -2.570180    3.371813   -0.811583
      8          1           0       -5.325490   -0.560047    0.693836
      9          1           0       -6.367351    1.655623    0.299055
     10          1           0       -5.027800    3.586547   -0.437634
     11          7           0       -2.476181   -0.874695    0.254778
     12          7           0       -1.246888    0.899802   -0.401101
     13          6           0       -1.257737   -0.360806   -0.077572
     14          6           0       -2.775146   -2.228919    0.693516
     15          1           0       -2.107757   -2.926664    0.185455
     16          1           0       -2.647827   -2.321688    1.774323
     17          1           0       -3.804379   -2.460468    0.415061
     18         16           0        0.202962   -1.385388   -0.034239
     19          8           0        0.097571   -2.368472   -1.112031
     20          8           0        0.359054   -1.854906    1.341574
     21          6           0        1.503551   -0.218710   -0.423896
     22          6           0        2.836924   -0.973705   -0.449775
     23          1           0        1.479778    0.557757    0.343937
     24          1           0        1.249270    0.226047   -1.389402
     25          6           0        3.952530   -0.038170   -0.820836
     26          1           0        3.022515   -1.417050    0.533692
     27          1           0        2.763322   -1.791005   -1.177040
     28          6           0        4.963727    0.273176   -0.016994
     29          1           0        3.896142    0.404698   -1.815071
     30          1           0        5.746978    0.957490   -0.326345
     31          1           0        5.045482   -0.152080    0.980157
 ---------------------------------------------------------------------
                    Distance matrix (angstroms):
                    1          2          3          4          5
     1  C    0.000000
     2  C    1.400037   0.000000
     3  C    2.434764   1.409973   0.000000
     4  C    2.862123   2.460742   1.397397   0.000000
     5  C    2.436955   2.771047   2.364991   1.384623   0.000000
     6  C    1.383226   2.382522   2.751058   2.442586   1.410577
     7  H    1.084553   2.159543   3.419060   3.946640   3.430347
     8  H    3.947135   3.449787   2.176916   1.085040   2.159850
     9  H    3.406353   3.855957   3.356080   2.134849   1.085235
    10  H    2.138590   3.372407   3.835683   3.409658   2.156018
    11  N    3.551497   2.220986   1.380546   2.538482   3.710258
    12  N    2.521536   1.385184   2.292030   3.619837   4.138435
    13  C    3.488864   2.112075   2.178232   3.560664   4.468214
    14  C    4.917574   3.645711   2.541906   3.202900   4.560608
    15  H    5.597889   4.257716   3.352064   4.151290   5.481186
    16  H    5.377356   4.143640   3.071566   3.623607   4.952243
    17  H    5.109152   3.998397   2.696481   2.898709   4.268782
    18  S    5.186527   3.855829   3.892875   5.224734   6.230093
    19  O    5.919533   4.599186   4.474112   5.704264   6.775022
    20  O    5.917624   4.585644   4.402596   5.608190   6.702317
    21  C    5.421573   4.345638   4.908159   6.304629   7.048063
    22  C    6.953422   5.862991   6.327156   7.715315   8.534457
    23  H    5.118579   4.161856   4.853003   6.217188   6.852981
    24  H    5.063726   4.119071   4.853295   6.232435   6.851872
    25  C    7.578259   6.679451   7.374272   8.770251   9.434542
    26  H    7.413573   6.263322   6.586788   7.940485   8.838001
    27  H    7.371153   6.222970   6.563742   7.928109   8.819929
    28  C    8.454021   7.607362   8.320560   9.702598  10.342524
    29  H    7.496701   6.707532   7.514492   8.899056   9.470060
    30  H    9.056042   8.325742   9.146687  10.522528  11.072771
    31  H    8.765974   7.851795   8.448345   9.806123  10.515624
                    6          7          8          9         10
     6  C    0.000000
     7  H    2.163870   0.000000
     8  H    3.431465   5.031654   0.000000
     9  H    2.157449   4.312463   2.480024   0.000000
    10  H    1.084998   2.495165   4.308490   2.462839   0.000000
    11  N    4.102069   4.379360   2.900058   4.641732   5.185834
    12  N    3.717913   2.833803   4.468226   5.223086   4.638452
    13  C    4.442796   4.024143   4.145044   5.505996   5.470340
    14  C    5.261543   5.803063   3.047850   5.305582   6.338264
    15  H    6.084319   6.393648   4.026553   6.257348   7.164971
    16  H    5.685839   6.253710   3.382412   5.641833   6.742719
    17  H    5.192831   6.086330   2.450122   4.850205   6.228181
    18  S    6.216686   5.561074   5.636938   7.247610   7.227983
    19  O    6.867547   6.337036   5.995094   7.744658   7.885841
    20  O    6.834543   6.366718   5.866027   7.658668   7.860865
    21  C    6.678519   5.444028   6.928321   8.123231   7.559015
    22  C    8.207617   6.946308   8.252512   9.601708   9.091200
    23  H    6.391877   5.065205   6.905331   7.923684   7.220319
    24  H    6.361577   4.981758   6.941563   7.931424   7.183344
    25  C    8.913130   7.360286   9.415320  10.517749   9.691839
    26  H    8.611717   7.484732   8.393408   9.882609   9.528223
    27  H    8.580667   7.431991   8.393111   9.870526   9.495597
    28  C    9.789596   8.184905  10.347344  11.419474  10.534988
    29  H    8.853561   7.184989   9.605407  10.553371   9.573831
    30  H   10.416232   8.674072  11.222444  12.150535  11.091446
    31  H   10.054903   8.580586  10.382942  11.575165  10.837826
                   11         12         13         14         15
    11  N    0.000000
    12  N    2.256142   0.000000
    13  C    1.363505   1.301507   0.000000
    14  C    1.454577   3.650021   2.527243   0.000000
    15  H    2.085933   3.965726   2.715759   1.091046   0.000000
    16  H    2.105295   4.131960   3.034291   1.092227   1.783864
    17  H    2.074723   4.300965   3.337163   1.091087   1.774424
    18  S    2.742653   2.731070   1.784737   3.179671   2.786256
    19  O    3.274712   3.604803   2.633949   3.395877   2.618879
    20  O    3.190690   3.633783   2.619222   3.222279   2.927531
    21  C    4.090132   2.969259   2.786546   4.857653   4.554763
    22  C    5.360530   4.493318   4.156973   5.863276   5.354198
    23  H    4.208264   2.847241   2.918119   5.098250   5.003670
    24  H    4.218287   2.767939   2.889702   5.153769   4.867175
    25  C    6.571533   5.299992   5.272895   7.235626   6.788454
    26  H    5.532414   4.946659   4.450826   5.856411   5.359095
    27  H    5.508368   4.891247   4.407177   5.862199   5.183968
    28  C    7.532842   6.253953   6.253976   8.164280   7.764397
    29  H    6.821116   5.356789   5.492482   7.598357   7.151705
    30  H    8.444818   6.994503   7.132028   9.155322   8.777555
    31  H    7.591032   6.527499   6.394757   8.096768   7.713540
                   16         17         18         19         20
    16  H    0.000000
    17  H    1.790102   0.000000
    18  S    3.503506   4.173302   0.000000
    19  O    3.983772   4.191144   1.462599   0.000000
    20  O    3.073515   4.308052   1.462078   2.520377   0.000000
    21  C    5.146709   5.822666   1.790111   2.659282   2.665313
    22  C    6.070104   6.860416   2.698130   3.144520   3.182025
    23  H    5.232048   6.085808   2.355650   3.548683   2.841169
    24  H    5.629163   6.001068   2.351159   2.852170   3.546982
    25  C    7.450773   8.219770   4.061156   4.513957   4.570516
    26  H    5.874548   6.907190   2.876356   3.488395   2.817519
    27  H    6.186493   6.790998   2.833012   2.728354   3.482528
    28  C    8.238804   9.194518   5.041430   5.644190   5.251424
    29  H    7.946097   8.513559   4.473851   4.755405   5.251781
    30  H    9.254111  10.171556   6.025821   6.602660   6.302480
    31  H    8.032739   9.163407   5.099024   5.811322   4.999284
                   21         22         23         24         25
    21  C    0.000000
    22  C    1.532505   0.000000
    23  H    1.092261   2.194811   0.000000
    24  H    1.093009   2.200670   1.779784   0.000000
    25  C    2.487500   1.502495   2.797558   2.775013   0.000000
    26  H    2.158761   1.094626   2.513147   3.089087   2.144992
    27  H    2.150897   1.096500   3.078561   2.530998   2.147913
    28  C    3.518571   2.503059   3.514137   3.960166   1.328766
    29  H    2.836988   2.210423   3.244003   2.686827   1.089869
    30  H    4.404503   3.494734   4.337979   4.679154   2.110901
    31  H    3.810654   2.756357   3.690919   4.490993   2.109762
                   26         27         28         29         30
    26  H    0.000000
    27  H    1.770206   0.000000
    28  C    2.632191   3.232389   0.000000
    29  H    3.098174   2.551760   2.095261   0.000000
    30  H    3.714944   4.144890   1.085111   2.438745   0.000000
    31  H    2.427319   3.542292   1.087123   3.073155   1.852078
                   31
    31  H    0.000000
 Stoichiometry    C12H14N2O2S
 Framework group  C1[X(C12H14N2O2S)]
 Deg. of freedom    87
 Full point group                 C1      NOp   1
 Largest Abelian subgroup         C1      NOp   1
 Largest concise Abelian subgroup C1      NOp   1
                         Standard orientation:                         
 ---------------------------------------------------------------------
 Center     Atomic      Atomic             Coordinates (Angstroms)
 Number     Number       Type             X           Y           Z
 ---------------------------------------------------------------------
      1          6           0       -2.883099    2.185418   -0.102802
      2          6           0       -2.022513    1.081562   -0.071246
      3          6           0       -2.547236   -0.220627    0.059116
      4          6           0       -3.918063   -0.469322    0.167289
      5          6           0       -4.749937    0.637060    0.134367
      6          6           0       -4.241516    1.946010    0.000637
      7          1           0       -2.481210    3.187619   -0.204462
      8          1           0       -4.314020   -1.473479    0.277732
      9          1           0       -5.822579    0.494004    0.216283
     10          1           0       -4.935798    2.779557   -0.019182
     11          7           0       -1.452749   -1.061941    0.045134
     12          7           0       -0.640438    1.033759   -0.150748
     13          6           0       -0.373100   -0.237640   -0.073320
     14          6           0       -1.448809   -2.509115    0.191651
     15          1           0       -0.615857   -2.925437   -0.376899
     16          1           0       -1.351752   -2.790634    1.242501
     17          1           0       -2.382838   -2.897903   -0.216888
     18         16           0        1.281938   -0.905283   -0.093045
     19          8           0        1.455515   -1.646226   -1.342073
     20          8           0        1.481163   -1.600300    1.177755
     21          6           0        2.292598    0.571585   -0.136924
     22          6           0        3.764485    0.147536   -0.184886
     23          1           0        2.055233    1.150484    0.758380
     24          1           0        1.985414    1.137717   -1.019988
     25          6           0        4.648161    1.359650   -0.270844
     26          1           0        4.003794   -0.435914    0.709834
     27          1           0        3.914889   -0.499875   -1.056981
     28          6           0        5.522745    1.713318    0.664912
     29          1           0        4.534992    1.973053   -1.164568
     30          1           0        6.138964    2.600531    0.561996
     31          1           0        5.656349    1.121662    1.567094
 ---------------------------------------------------------------------
 Rotational constants (GHZ):           0.9480656           0.2264933           0.1924307
 Standard basis: def2TZVP (5D, 7F)
 There are   702 symmetry adapted cartesian basis functions of A   symmetry.
 There are   617 symmetry adapted basis functions of A   symmetry.
   617 basis functions,   997 primitive gaussians,   702 cartesian basis functions
    66 alpha electrons       66 beta electrons
       nuclear repulsion energy      1336.3362384628 Hartrees.
 NAtoms=   31 NActive=   31 NUniq=   31 SFac= 1.00D+00 NAtFMM=   60 NAOKFM=F Big=F
 Integral buffers will be    131072 words long.
 Raffenetti 2 integral format.
 Two-electron integral symmetry is turned on.
 ------------------------------------------------------------------------------
 Polarizable Continuum Model (PCM)
 =================================
 Model                : PCM.
 Atomic radii         : UFF (Universal Force Field).
 Polarization charges : Total charges.
 Charge compensation  : None.
 Solution method      : On-the-fly selection.
 Cavity type          : Scaled VdW (van der Waals Surface) (Alpha=1.100).
 Cavity algorithm     : GePol (No added spheres)
                        Default sphere list used, NSphG=   31.
                        Lebedev-Laikov grids with approx.  5.0 points / Ang**2.
                        Smoothing algorithm: York/Karplus (Gamma=1.0000).
                        Polarization charges: spherical gaussians, with
                                              point-specific exponents (IZeta= 3).
                        Self-potential: point-specific (ISelfS= 7).
                        Self-field    : sphere-specific E.n sum rule (ISelfD= 2).
 Solvent              : n,n-DiMethylFormamide, Eps=  37.219000 Eps(inf)=   2.046330
 ------------------------------------------------------------------------------
 One-electron integrals computed using PRISM.
   1 Symmetry operations used in ECPInt.
 ECPInt:  NShTT=   30135 NPrTT=   93526 LenC2=   26075 LenP2D=   58078.
 LDataN:  DoStor=T MaxTD1= 6 Len=  172
 Number of processors reduced to  95 by ecpmxn.
 NBasis=   617 RedAO= T EigKep=  8.21D-06  NBF=   617
 NBsUse=   617 1.00D-06 EigRej= -1.00D+00 NBFU=   617
 ExpMin= 9.52D-02 ExpMax= 6.07D+04 ExpMxC= 2.07D+03 IAcc=3 IRadAn=         5 AccDes= 0.00D+00
 Harris functional with IExCor= 1009 and IRadAn=       5 diagonalized for initial guess.
 HarFok:  IExCor= 1009 AccDes= 0.00D+00 IRadAn=         5 IDoV= 1 UseB2=F ITyADJ=14
 ICtDFT=  3500011 ScaDFX=  1.000000  1.000000  1.000000  1.000000
 FoFCou: FMM=F IPFlag=           0 FMFlag=      100000 FMFlg1=           0
         NFxFlg=           0 DoJE=T BraDBF=F KetDBF=T FulRan=T
         wScrn=  0.000000 ICntrl=       500 IOpCl=  0 I1Cent=   200000004 NGrid=           0
         NMat0=    1 NMatS0=      1 NMatT0=    0 NMatD0=    1 NMtDS0=    0 NMtDT0=    0
 Petite list used in FoFCou.
 Requested convergence on RMS density matrix=1.00D-08 within 128 cycles.
 Requested convergence on MAX density matrix=1.00D-06.
 Requested convergence on             energy=1.00D-06.
 No special actions if energy rises.
 Inv3:  Mode=1 IEnd=    18287883.
 Iteration    1 A*A^-1 deviation from unit magnitude is 3.11D-15 for   2010.
 Iteration    1 A*A^-1 deviation from orthogonality  is 2.11D-15 for   2444   1246.
 Iteration    1 A^-1*A deviation from unit magnitude is 3.11D-15 for   2010.
 Iteration    1 A^-1*A deviation from orthogonality  is 1.91D-15 for   2206    458.
 Error on total polarization charges =  0.01667
 SCF Done:  E(RM062X) =  -1123.79240945     A.U. after   14 cycles
            NFock= 14  Conv=0.29D-08     -V/T= 2.0039

 **********************************************************************

            Population analysis using the SCF Density.

 **********************************************************************

 Orbital symmetries:
       Occupied  (A) (A) (A) (A) (A) (A) (A) (A) (A) (A) (A) (A)
                 (A) (A) (A) (A) (A) (A) (A) (A) (A) (A) (A) (A)
                 (A) (A) (A) (A) (A) (A) (A) (A) (A) (A) (A) (A)
                 (A) (A) (A) (A) (A) (A) (A) (A) (A) (A) (A) (A)
                 (A) (A) (A) (A) (A) (A) (A) (A) (A) (A) (A) (A)
                 (A) (A) (A) (A) (A) (A)
       Virtual   (A) (A) (A) (A) (A) (A) (A) (A) (A) (A) (A) (A)
                 (A) (A) (A) (A) (A) (A) (A) (A) (A) (A) (A) (A)
                 (A) (A) (A) (A) (A) (A) (A) (A) (A) (A) (A) (A)
                 (A) (A) (A) (A) (A) (A) (A) (A) (A) (A) (A) (A)
                 (A) (A) (A) (A) (A) (A) (A) (A) (A) (A) (A) (A)
                 (A) (A) (A) (A) (A) (A) (A) (A) (A) (A) (A) (A)
                 (A) (A) (A) (A) (A) (A) (A) (A) (A) (A) (A) (A)
                 (A) (A) (A) (A) (A) (A) (A) (A) (A) (A) (A) (A)
                 (A) (A) (A) (A) (A) (A) (A) (A) (A) (A) (A) (A)
                 (A) (A) (A) (A) (A) (A) (A) (A) (A) (A) (A) (A)
                 (A) (A) (A) (A) (A) (A) (A) (A) (A) (A) (A) (A)
                 (A) (A) (A) (A) (A) (A) (A) (A) (A) (A) (A) (A)
                 (A) (A) (A) (A) (A) (A) (A) (A) (A) (A) (A) (A)
                 (A) (A) (A) (A) (A) (A) (A) (A) (A) (A) (A) (A)
                 (A) (A) (A) (A) (A) (A) (A) (A) (A) (A) (A) (A)
                 (A) (A) (A) (A) (A) (A) (A) (A) (A) (A) (A) (A)
                 (A) (A) (A) (A) (A) (A) (A) (A) (A) (A) (A) (A)
                 (A) (A) (A) (A) (A) (A) (A) (A) (A) (A) (A) (A)
                 (A) (A) (A) (A) (A) (A) (A) (A) (A) (A) (A) (A)
                 (A) (A) (A) (A) (A) (A) (A) (A) (A) (A) (A) (A)
                 (A) (A) (A) (A) (A) (A) (A) (A) (A) (A) (A) (A)
                 (A) (A) (A) (A) (A) (A) (A) (A) (A) (A) (A) (A)
                 (A) (A) (A) (A) (A) (A) (A) (A) (A) (A) (A) (A)
                 (A) (A) (A) (A) (A) (A) (A) (A) (A) (A) (A) (A)
                 (A) (A) (A) (A) (A) (A) (A) (A) (A) (A) (A) (A)
                 (A) (A) (A) (A) (A) (A) (A) (A) (A) (A) (A) (A)
                 (A) (A) (A) (A) (A) (A) (A) (A) (A) (A) (A) (A)
                 (A) (A) (A) (A) (A) (A) (A) (A) (A) (A) (A) (A)
                 (A) (A) (A) (A) (A) (A) (A) (A) (A) (A) (A) (A)
                 (A) (A) (A) (A) (A) (A) (A) (A) (A) (A) (A) (A)
                 (A) (A) (A) (A) (A) (A) (A) (A) (A) (A) (A) (A)
                 (A) (A) (A) (A) (A) (A) (A) (A) (A) (A) (A) (A)
                 (A) (A) (A) (A) (A) (A) (A) (A) (A) (A) (A) (A)
                 (A) (A) (A) (A) (A) (A) (A) (A) (A) (A) (A) (A)
                 (A) (A) (A) (A) (A) (A) (A) (A) (A) (A) (A) (A)
                 (A) (A) (A) (A) (A) (A) (A) (A) (A) (A) (A) (A)
                 (A) (A) (A) (A) (A) (A) (A) (A) (A) (A) (A) (A)
                 (A) (A) (A) (A) (A) (A) (A) (A) (A) (A) (A) (A)
                 (A) (A) (A) (A) (A) (A) (A) (A) (A) (A) (A) (A)
                 (A) (A) (A) (A) (A) (A) (A) (A) (A) (A) (A) (A)
                 (A) (A) (A) (A) (A) (A) (A) (A) (A) (A) (A) (A)
                 (A) (A) (A) (A) (A) (A) (A) (A) (A) (A) (A) (A)
                 (A) (A) (A) (A) (A) (A) (A) (A) (A) (A) (A) (A)
                 (A) (A) (A) (A) (A) (A) (A) (A) (A) (A) (A) (A)
                 (A) (A) (A) (A) (A) (A) (A) (A) (A) (A) (A) (A)
                 (A) (A) (A) (A) (A) (A) (A) (A) (A) (A) (A)
 The electronic state is 1-A.
 Alpha  occ. eigenvalues --  -90.11272 -19.64134 -19.64120 -14.83152 -14.76850
 Alpha  occ. eigenvalues --  -10.64533 -10.59459 -10.58922 -10.58713 -10.58166
 Alpha  occ. eigenvalues --  -10.56091 -10.55904 -10.55452 -10.55345 -10.55181
 Alpha  occ. eigenvalues --  -10.54914 -10.53739  -8.44376  -6.36520  -6.36416
 Alpha  occ. eigenvalues --   -6.36410  -1.24556  -1.16315  -1.13894  -1.02804
 Alpha  occ. eigenvalues --   -0.96629  -0.93467  -0.88214  -0.86410  -0.85062
 Alpha  occ. eigenvalues --   -0.82732  -0.79190  -0.74079  -0.70479  -0.68902
 Alpha  occ. eigenvalues --   -0.66689  -0.64880  -0.61269  -0.59923  -0.59428
 Alpha  occ. eigenvalues --   -0.58354  -0.57266  -0.56782  -0.54958  -0.52657
 Alpha  occ. eigenvalues --   -0.52167  -0.51705  -0.51569  -0.49600  -0.49178
 Alpha  occ. eigenvalues --   -0.48301  -0.47457  -0.44293  -0.44013  -0.43644
 Alpha  occ. eigenvalues --   -0.43417  -0.42740  -0.41895  -0.41341  -0.40104
 Alpha  occ. eigenvalues --   -0.38999  -0.38256  -0.36843  -0.32965  -0.30002
 Alpha  occ. eigenvalues --   -0.29584
 Alpha virt. eigenvalues --   -0.01950   0.03021   0.03148   0.04853   0.05218
 Alpha virt. eigenvalues --    0.08082   0.08458   0.08680   0.09645   0.10152
 Alpha virt. eigenvalues --    0.11052   0.11773   0.11938   0.12482   0.13245
 Alpha virt. eigenvalues --    0.13394   0.13872   0.14051   0.15274   0.15737
 Alpha virt. eigenvalues --    0.15889   0.16483   0.17178   0.18228   0.19005
 Alpha virt. eigenvalues --    0.19364   0.19560   0.20013   0.21709   0.21988
 Alpha virt. eigenvalues --    0.22415   0.22996   0.23679   0.23813   0.24642
 Alpha virt. eigenvalues --    0.25584   0.25880   0.26227   0.27254   0.27715
 Alpha virt. eigenvalues --    0.28773   0.28965   0.29874   0.30324   0.31271
 Alpha virt. eigenvalues --    0.31828   0.32319   0.33425   0.33671   0.34688
 Alpha virt. eigenvalues --    0.34926   0.35914   0.36035   0.36486   0.37500
 Alpha virt. eigenvalues --    0.37775   0.38182   0.38324   0.39798   0.39876
 Alpha virt. eigenvalues --    0.40609   0.41076   0.41811   0.42185   0.42422
 Alpha virt. eigenvalues --    0.43295   0.43531   0.44239   0.44735   0.45724
 Alpha virt. eigenvalues --    0.45899   0.46453   0.46587   0.47419   0.47952
 Alpha virt. eigenvalues --    0.48523   0.48929   0.49474   0.50137   0.50251
 Alpha virt. eigenvalues --    0.50947   0.51223   0.52057   0.52293   0.52566
 Alpha virt. eigenvalues --    0.52808   0.54402   0.54747   0.55136   0.55321
 Alpha virt. eigenvalues --    0.55958   0.56866   0.58219   0.59473   0.59762
 Alpha virt. eigenvalues --    0.61358   0.61678   0.61893   0.63275   0.63712
 Alpha virt. eigenvalues --    0.64034   0.65169   0.66197   0.66563   0.67893
 Alpha virt. eigenvalues --    0.68675   0.69594   0.70178   0.71238   0.71747
 Alpha virt. eigenvalues --    0.72275   0.73724   0.73792   0.74087   0.75810
 Alpha virt. eigenvalues --    0.76504   0.77006   0.77459   0.78260   0.78960
 Alpha virt. eigenvalues --    0.79824   0.80759   0.82106   0.82759   0.83810
 Alpha virt. eigenvalues --    0.85506   0.86268   0.87545   0.87766   0.88517
 Alpha virt. eigenvalues --    0.89811   0.90782   0.91754   0.92237   0.93538
 Alpha virt. eigenvalues --    0.93896   0.94843   0.96004   0.96123   0.96495
 Alpha virt. eigenvalues --    0.99612   1.00014   1.01776   1.02453   1.03097
 Alpha virt. eigenvalues --    1.03491   1.05712   1.07406   1.08227   1.09081
 Alpha virt. eigenvalues --    1.09338   1.10968   1.11914   1.13005   1.13462
 Alpha virt. eigenvalues --    1.14383   1.15450   1.16026   1.16593   1.18295
 Alpha virt. eigenvalues --    1.19963   1.21604   1.22340   1.23540   1.25505
 Alpha virt. eigenvalues --    1.26271   1.27046   1.27249   1.27866   1.28419
 Alpha virt. eigenvalues --    1.28621   1.30141   1.31491   1.34065   1.35452
 Alpha virt. eigenvalues --    1.36164   1.37812   1.39598   1.40520   1.41231
 Alpha virt. eigenvalues --    1.42146   1.44518   1.45447   1.46317   1.47601
 Alpha virt. eigenvalues --    1.48405   1.48808   1.50053   1.50356   1.50648
 Alpha virt. eigenvalues --    1.52642   1.52889   1.54174   1.55187   1.55204
 Alpha virt. eigenvalues --    1.55389   1.56358   1.57181   1.57973   1.59044
 Alpha virt. eigenvalues --    1.59670   1.60173   1.60571   1.61633   1.62277
 Alpha virt. eigenvalues --    1.62927   1.63919   1.65087   1.66213   1.66685
 Alpha virt. eigenvalues --    1.67695   1.68356   1.68757   1.69064   1.70722
 Alpha virt. eigenvalues --    1.71616   1.71785   1.73980   1.74288   1.75273
 Alpha virt. eigenvalues --    1.75784   1.76836   1.77421   1.78364   1.79328
 Alpha virt. eigenvalues --    1.80421   1.81166   1.82416   1.83108   1.84307
 Alpha virt. eigenvalues --    1.84808   1.85597   1.86227   1.86909   1.87716
 Alpha virt. eigenvalues --    1.88101   1.88871   1.91626   1.93340   1.94099
 Alpha virt. eigenvalues --    1.97212   1.97765   1.99082   1.99466   2.00868
 Alpha virt. eigenvalues --    2.01628   2.01818   2.03791   2.06436   2.07079
 Alpha virt. eigenvalues --    2.08288   2.09865   2.10686   2.11264   2.11962
 Alpha virt. eigenvalues --    2.13444   2.14766   2.16921   2.18517   2.18861
 Alpha virt. eigenvalues --    2.20732   2.22457   2.23245   2.24575   2.25485
 Alpha virt. eigenvalues --    2.26517   2.26849   2.27273   2.29203   2.30045
 Alpha virt. eigenvalues --    2.30479   2.30869   2.33066   2.33495   2.34621
 Alpha virt. eigenvalues --    2.35990   2.36981   2.38165   2.38663   2.39438
 Alpha virt. eigenvalues --    2.39707   2.40651   2.41237   2.42102   2.42595
 Alpha virt. eigenvalues --    2.43653   2.44718   2.45373   2.47888   2.48635
 Alpha virt. eigenvalues --    2.48840   2.49689   2.51256   2.52519   2.53662
 Alpha virt. eigenvalues --    2.54369   2.55577   2.56318   2.57843   2.59012
 Alpha virt. eigenvalues --    2.59615   2.61171   2.61867   2.62849   2.63702
 Alpha virt. eigenvalues --    2.64318   2.64860   2.65245   2.66706   2.67919
 Alpha virt. eigenvalues --    2.68107   2.68725   2.69387   2.70159   2.71343
 Alpha virt. eigenvalues --    2.71953   2.73315   2.74408   2.75498   2.78022
 Alpha virt. eigenvalues --    2.78958   2.79359   2.80225   2.81852   2.82450
 Alpha virt. eigenvalues --    2.82914   2.83559   2.83909   2.86554   2.87720
 Alpha virt. eigenvalues --    2.88823   2.88928   2.90035   2.90628   2.91490
 Alpha virt. eigenvalues --    2.92031   2.95432   2.95812   2.97459   2.97770
 Alpha virt. eigenvalues --    2.99368   3.00554   3.01408   3.03506   3.04627
 Alpha virt. eigenvalues --    3.05009   3.05744   3.07053   3.07955   3.08859
 Alpha virt. eigenvalues --    3.09071   3.09704   3.10438   3.10966   3.11701
 Alpha virt. eigenvalues --    3.12799   3.13022   3.14507   3.15068   3.15953
 Alpha virt. eigenvalues --    3.16935   3.17483   3.18199   3.18886   3.19339
 Alpha virt. eigenvalues --    3.20297   3.20562   3.21187   3.22083   3.22534
 Alpha virt. eigenvalues --    3.23809   3.24536   3.25471   3.25721   3.27565
 Alpha virt. eigenvalues --    3.27852   3.28575   3.29018   3.29597   3.30465
 Alpha virt. eigenvalues --    3.31308   3.33481   3.34202   3.34629   3.35654
 Alpha virt. eigenvalues --    3.36013   3.36713   3.37832   3.38358   3.38650
 Alpha virt. eigenvalues --    3.39518   3.40599   3.40900   3.42111   3.44475
 Alpha virt. eigenvalues --    3.45614   3.45909   3.46727   3.47249   3.48818
 Alpha virt. eigenvalues --    3.50214   3.51481   3.52739   3.53145   3.54579
 Alpha virt. eigenvalues --    3.54975   3.55482   3.56176   3.56753   3.59005
 Alpha virt. eigenvalues --    3.60957   3.61542   3.62533   3.65918   3.68261
 Alpha virt. eigenvalues --    3.68761   3.70949   3.71550   3.73500   3.75730
 Alpha virt. eigenvalues --    3.76354   3.76769   3.78287   3.81672   3.82987
 Alpha virt. eigenvalues --    3.87038   3.88945   3.89768   3.90655   3.91725
 Alpha virt. eigenvalues --    3.94145   3.95150   3.97509   3.99416   4.02198
 Alpha virt. eigenvalues --    4.03366   4.04867   4.06003   4.06754   4.07534
 Alpha virt. eigenvalues --    4.08710   4.10241   4.12976   4.13754   4.14653
 Alpha virt. eigenvalues --    4.15532   4.17204   4.17809   4.19440   4.20623
 Alpha virt. eigenvalues --    4.22730   4.24706   4.25510   4.26410   4.30252
 Alpha virt. eigenvalues --    4.33514   4.35131   4.37427   4.38525   4.39164
 Alpha virt. eigenvalues --    4.41635   4.47671   4.49402   4.51557   4.52693
 Alpha virt. eigenvalues --    4.52930   4.54361   4.62773   4.63600   4.67566
 Alpha virt. eigenvalues --    4.69027   4.70145   4.71587   4.72179   4.77225
 Alpha virt. eigenvalues --    4.80123   4.82998   4.83743   4.84814   4.89488
 Alpha virt. eigenvalues --    4.90718   4.97108   4.97382   5.02915   5.03786
 Alpha virt. eigenvalues --    5.06010   5.06979   5.08295   5.11275   5.13548
 Alpha virt. eigenvalues --    5.14178   5.15127   5.16006   5.16058   5.17349
 Alpha virt. eigenvalues --    5.17787   5.19110   5.21413   5.22205   5.26201
 Alpha virt. eigenvalues --    5.30393   5.31616   5.34655   5.38443   5.39434
 Alpha virt. eigenvalues --    5.40006   5.44113   5.49360   5.51577   5.54308
 Alpha virt. eigenvalues --    5.57025   5.58327   5.60550   5.63633   5.65803
 Alpha virt. eigenvalues --    5.70339   5.73624   5.76257   5.88851   6.08514
 Alpha virt. eigenvalues --    6.26350   6.28589   6.29640   6.40338   6.44930
 Alpha virt. eigenvalues --    6.70724   6.72988   6.76917   6.78016   6.86801
 Alpha virt. eigenvalues --    6.90521   9.55673   9.64628   9.67284  22.08114
 Alpha virt. eigenvalues --   22.20859  22.37542  22.45318  22.55452  22.58955
 Alpha virt. eigenvalues --   22.68734  22.73511  22.79913  22.95375  23.00569
 Alpha virt. eigenvalues --   23.49751  23.60388  32.58208  33.09539  43.91795
 Alpha virt. eigenvalues --   43.93857
          Condensed to atoms (all electrons):
               1          2          3          4          5          6
     1  C    5.113093   0.342583   0.093818  -0.135640   0.000506   0.496426
     2  C    0.342583   5.037616   0.263126   0.098794  -0.087011  -0.016122
     3  C    0.093818   0.263126   5.358294   0.181991  -0.002201  -0.122843
     4  C   -0.135640   0.098794   0.181991   5.317875   0.457776   0.022723
     5  C    0.000506  -0.087011  -0.002201   0.457776   4.952076   0.458056
     6  C    0.496426  -0.016122  -0.122843   0.022723   0.458056   4.970287
     7  H    0.420094  -0.054889   0.021443  -0.006128   0.008322  -0.038101
     8  H    0.001750  -0.000887  -0.012690   0.375848   0.002942  -0.000601
     9  H    0.004867  -0.000671   0.009162  -0.041594   0.422504  -0.036234
    10  H   -0.046184   0.011852  -0.003011   0.009398  -0.044049   0.428936
    11  N    0.013310  -0.107404   0.444132  -0.060077   0.003405  -0.001000
    12  N   -0.050349   0.518224  -0.113422   0.031346  -0.005063   0.007903
    13  C   -0.007215  -0.155187  -0.181784   0.004986   0.000148  -0.001841
    14  C    0.000326   0.012041  -0.045121  -0.014097   0.001251  -0.000379
    15  H    0.000014  -0.000820   0.009208   0.000497   0.000004   0.000003
    16  H   -0.000141  -0.001639   0.000823   0.002338  -0.000317   0.000041
    17  H    0.000249   0.002412  -0.021501  -0.005068   0.001724  -0.000259
    18  S   -0.000272   0.000336   0.006318  -0.000672   0.000051  -0.000027
    19  O    0.000044  -0.000666  -0.001450  -0.000018   0.000003  -0.000006
    20  O    0.000039  -0.000365  -0.002242  -0.000090   0.000003  -0.000005
    21  C   -0.000145  -0.002964   0.001416   0.000039   0.000003  -0.000007
    22  C    0.000019   0.000379  -0.000030  -0.000009   0.000001  -0.000001
    23  H    0.000031  -0.000006   0.000010  -0.000016   0.000003  -0.000006
    24  H    0.000065   0.000881   0.000084  -0.000025   0.000004  -0.000011
    25  C   -0.000001  -0.000010   0.000009   0.000000  -0.000000   0.000000
    26  H   -0.000000   0.000000   0.000005   0.000000  -0.000000   0.000000
    27  H   -0.000001  -0.000010   0.000008   0.000000  -0.000000   0.000000
    28  C   -0.000000  -0.000001   0.000000   0.000000  -0.000000   0.000000
    29  H    0.000000  -0.000001  -0.000000   0.000000   0.000000   0.000000
    30  H   -0.000000  -0.000000   0.000000   0.000000  -0.000000   0.000000
    31  H    0.000000   0.000000   0.000000  -0.000000   0.000000  -0.000000
               7          8          9         10         11         12
     1  C    0.420094   0.001750   0.004867  -0.046184   0.013310  -0.050349
     2  C   -0.054889  -0.000887  -0.000671   0.011852  -0.107404   0.518224
     3  C    0.021443  -0.012690   0.009162  -0.003011   0.444132  -0.113422
     4  C   -0.006128   0.375848  -0.041594   0.009398  -0.060077   0.031346
     5  C    0.008322   0.002942   0.422504  -0.044049   0.003405  -0.005063
     6  C   -0.038101  -0.000601  -0.036234   0.428936  -0.001000   0.007903
     7  H    0.482012   0.000035  -0.000144  -0.004922   0.000184   0.003055
     8  H    0.000035   0.443719  -0.003178  -0.000177   0.001229  -0.000083
     9  H   -0.000144  -0.003178   0.478923  -0.003803  -0.000081   0.000004
    10  H   -0.004922  -0.000177  -0.003803   0.484213   0.000005  -0.000086
    11  N    0.000184   0.001229  -0.000081   0.000005   6.299678  -0.105451
    12  N    0.003055  -0.000083   0.000004  -0.000086  -0.105451   6.581968
    13  C   -0.000574   0.000021   0.000050   0.000060   0.475972   0.479464
    14  C    0.000029  -0.001036   0.000010  -0.000003   0.265067   0.001166
    15  H   -0.000001   0.000070  -0.000000   0.000000  -0.027598   0.000651
    16  H   -0.000000  -0.000024  -0.000003   0.000000  -0.042035   0.000512
    17  H    0.000002  -0.002272   0.000015  -0.000001  -0.017768  -0.000512
    18  S   -0.000005   0.000007  -0.000000  -0.000000  -0.031424  -0.032553
    19  O    0.000001  -0.000001   0.000000   0.000000  -0.003204   0.000460
    20  O    0.000001  -0.000005   0.000000   0.000000  -0.004103   0.000646
    21  C    0.000019  -0.000001   0.000000   0.000000   0.000906  -0.002883
    22  C    0.000006   0.000000  -0.000000  -0.000000   0.000043   0.004182
    23  H    0.000018   0.000000   0.000000  -0.000000   0.000150   0.001564
    24  H    0.000041   0.000000   0.000000  -0.000000   0.000146   0.006543
    25  C   -0.000000   0.000000   0.000000   0.000000   0.000004  -0.000202
    26  H   -0.000000   0.000000  -0.000000  -0.000000  -0.000007  -0.000139
    27  H   -0.000000  -0.000000  -0.000000   0.000000  -0.000008  -0.000181
    28  C   -0.000000  -0.000000   0.000000   0.000000  -0.000001  -0.000013
    29  H   -0.000000  -0.000000  -0.000000  -0.000000  -0.000000  -0.000028
    30  H   -0.000000   0.000000   0.000000   0.000000   0.000000   0.000000
    31  H    0.000000  -0.000000   0.000000  -0.000000  -0.000000  -0.000000
              13         14         15         16         17         18
     1  C   -0.007215   0.000326   0.000014  -0.000141   0.000249  -0.000272
     2  C   -0.155187   0.012041  -0.000820  -0.001639   0.002412   0.000336
     3  C   -0.181784  -0.045121   0.009208   0.000823  -0.021501   0.006318
     4  C    0.004986  -0.014097   0.000497   0.002338  -0.005068  -0.000672
     5  C    0.000148   0.001251   0.000004  -0.000317   0.001724   0.000051
     6  C   -0.001841  -0.000379   0.000003   0.000041  -0.000259  -0.000027
     7  H   -0.000574   0.000029  -0.000001  -0.000000   0.000002  -0.000005
     8  H    0.000021  -0.001036   0.000070  -0.000024  -0.002272   0.000007
     9  H    0.000050   0.000010  -0.000000  -0.000003   0.000015  -0.000000
    10  H    0.000060  -0.000003   0.000000   0.000000  -0.000001  -0.000000
    11  N    0.475972   0.265067  -0.027598  -0.042035  -0.017768  -0.031424
    12  N    0.479464   0.001166   0.000651   0.000512  -0.000512  -0.032553
    13  C    5.129892  -0.064953  -0.020480  -0.000958   0.011033   0.287837
    14  C   -0.064953   4.987264   0.399157   0.414726   0.395600   0.014082
    15  H   -0.020480   0.399157   0.480700  -0.026155  -0.016560   0.012929
    16  H   -0.000958   0.414726  -0.026155   0.488114  -0.025178  -0.001938
    17  H    0.011033   0.395600  -0.016560  -0.025178   0.505908  -0.000645
    18  S    0.287837   0.014082   0.012929  -0.001938  -0.000645  13.684180
    19  O   -0.042020  -0.014380   0.008807   0.000653   0.000093   0.520396
    20  O   -0.052422   0.006852  -0.003824   0.000193   0.000869   0.528956
    21  C   -0.039676  -0.000274   0.001327   0.000017   0.000059   0.268736
    22  C   -0.006356   0.000117  -0.000042  -0.000009  -0.000001  -0.005029
    23  H   -0.000076   0.000094  -0.000075   0.000006  -0.000001  -0.016072
    24  H   -0.003899  -0.000024  -0.000017  -0.000008  -0.000002  -0.016317
    25  C    0.000914   0.000002   0.000006  -0.000000  -0.000000   0.003543
    26  H    0.001080  -0.000005  -0.000009  -0.000001  -0.000000  -0.003315
    27  H    0.001167  -0.000003  -0.000004  -0.000001  -0.000000  -0.003248
    28  C   -0.000057  -0.000000   0.000000   0.000000  -0.000000  -0.000067
    29  H    0.000052   0.000000  -0.000000  -0.000000  -0.000000  -0.000233
    30  H   -0.000000   0.000000   0.000000   0.000000   0.000000   0.000010
    31  H    0.000002   0.000000   0.000000  -0.000000  -0.000000  -0.000003
              19         20         21         22         23         24
     1  C    0.000044   0.000039  -0.000145   0.000019   0.000031   0.000065
     2  C   -0.000666  -0.000365  -0.002964   0.000379  -0.000006   0.000881
     3  C   -0.001450  -0.002242   0.001416  -0.000030   0.000010   0.000084
     4  C   -0.000018  -0.000090   0.000039  -0.000009  -0.000016  -0.000025
     5  C    0.000003   0.000003   0.000003   0.000001   0.000003   0.000004
     6  C   -0.000006  -0.000005  -0.000007  -0.000001  -0.000006  -0.000011
     7  H    0.000001   0.000001   0.000019   0.000006   0.000018   0.000041
     8  H   -0.000001  -0.000005  -0.000001   0.000000   0.000000   0.000000
     9  H    0.000000   0.000000   0.000000  -0.000000   0.000000   0.000000
    10  H    0.000000   0.000000   0.000000  -0.000000  -0.000000  -0.000000
    11  N   -0.003204  -0.004103   0.000906   0.000043   0.000150   0.000146
    12  N    0.000460   0.000646  -0.002883   0.004182   0.001564   0.006543
    13  C   -0.042020  -0.052422  -0.039676  -0.006356  -0.000076  -0.003899
    14  C   -0.014380   0.006852  -0.000274   0.000117   0.000094  -0.000024
    15  H    0.008807  -0.003824   0.001327  -0.000042  -0.000075  -0.000017
    16  H    0.000653   0.000193   0.000017  -0.000009   0.000006  -0.000008
    17  H    0.000093   0.000869   0.000059  -0.000001  -0.000001  -0.000002
    18  S    0.520396   0.528956   0.268736  -0.005029  -0.016072  -0.016317
    19  O    8.144236  -0.054489  -0.049331  -0.003780   0.002945   0.000262
    20  O   -0.054489   8.135193  -0.045484  -0.006248   0.000339   0.003251
    21  C   -0.049331  -0.045484   5.384609   0.128743   0.390214   0.396840
    22  C   -0.003780  -0.006248   0.128743   5.245923  -0.020970  -0.029994
    23  H    0.002945   0.000339   0.390214  -0.020970   0.441270  -0.011379
    24  H    0.000262   0.003251   0.396840  -0.029994  -0.011379   0.442526
    25  C   -0.000339   0.000318  -0.025466   0.222538   0.000672  -0.000548
    26  H    0.000604   0.007403  -0.042739   0.428544   0.000892   0.002352
    27  H    0.007595   0.000250  -0.057679   0.434765   0.003291   0.000619
    28  C   -0.000070   0.000048  -0.007358  -0.045349  -0.000617   0.001848
    29  H    0.000152  -0.000018  -0.000181  -0.039461   0.001493  -0.001029
    30  H    0.000000  -0.000001  -0.000275   0.006832  -0.000047  -0.000039
    31  H    0.000004  -0.000006  -0.001248   0.000909   0.000389  -0.000006
              25         26         27         28         29         30
     1  C   -0.000001  -0.000000  -0.000001  -0.000000   0.000000  -0.000000
     2  C   -0.000010   0.000000  -0.000010  -0.000001  -0.000001  -0.000000
     3  C    0.000009   0.000005   0.000008   0.000000  -0.000000   0.000000
     4  C    0.000000   0.000000   0.000000   0.000000   0.000000   0.000000
     5  C   -0.000000  -0.000000  -0.000000  -0.000000   0.000000  -0.000000
     6  C    0.000000   0.000000   0.000000   0.000000   0.000000   0.000000
     7  H   -0.000000  -0.000000  -0.000000  -0.000000  -0.000000  -0.000000
     8  H    0.000000   0.000000  -0.000000  -0.000000  -0.000000   0.000000
     9  H    0.000000  -0.000000  -0.000000   0.000000  -0.000000   0.000000
    10  H    0.000000  -0.000000   0.000000   0.000000  -0.000000   0.000000
    11  N    0.000004  -0.000007  -0.000008  -0.000001  -0.000000   0.000000
    12  N   -0.000202  -0.000139  -0.000181  -0.000013  -0.000028   0.000000
    13  C    0.000914   0.001080   0.001167  -0.000057   0.000052  -0.000000
    14  C    0.000002  -0.000005  -0.000003  -0.000000   0.000000   0.000000
    15  H    0.000006  -0.000009  -0.000004   0.000000  -0.000000   0.000000
    16  H   -0.000000  -0.000001  -0.000001   0.000000  -0.000000   0.000000
    17  H   -0.000000  -0.000000  -0.000000  -0.000000  -0.000000   0.000000
    18  S    0.003543  -0.003315  -0.003248  -0.000067  -0.000233   0.000010
    19  O   -0.000339   0.000604   0.007595  -0.000070   0.000152   0.000000
    20  O    0.000318   0.007403   0.000250   0.000048  -0.000018  -0.000001
    21  C   -0.025466  -0.042739  -0.057679  -0.007358  -0.000181  -0.000275
    22  C    0.222538   0.428544   0.434765  -0.045349  -0.039461   0.006832
    23  H    0.000672   0.000892   0.003291  -0.000617   0.001493  -0.000047
    24  H   -0.000548   0.002352   0.000619   0.001848  -0.001029  -0.000039
    25  C    5.158600  -0.037914  -0.032683   0.545046   0.410937  -0.053243
    26  H   -0.037914   0.467566  -0.012197   0.003532   0.002636   0.000030
    27  H   -0.032683  -0.012197   0.476289  -0.003817  -0.000478  -0.000195
    28  C    0.545046   0.003532  -0.003817   5.011205  -0.027207   0.426452
    29  H    0.410937   0.002636  -0.000478  -0.027207   0.487761  -0.006062
    30  H   -0.053243   0.000030  -0.000195   0.426452  -0.006062   0.495594
    31  H   -0.057268   0.000865   0.000364   0.426702   0.004183  -0.022115
              31
     1  C    0.000000
     2  C    0.000000
     3  C    0.000000
     4  C   -0.000000
     5  C    0.000000
     6  C   -0.000000
     7  H    0.000000
     8  H   -0.000000
     9  H    0.000000
    10  H   -0.000000
    11  N   -0.000000
    12  N   -0.000000
    13  C    0.000002
    14  C    0.000000
    15  H    0.000000
    16  H   -0.000000
    17  H   -0.000000
    18  S   -0.000003
    19  O    0.000004
    20  O   -0.000006
    21  C   -0.001248
    22  C    0.000909
    23  H    0.000389
    24  H   -0.000006
    25  C   -0.057268
    26  H    0.000865
    27  H    0.000364
    28  C    0.426702
    29  H    0.004183
    30  H   -0.022115
    31  H    0.499828
 Mulliken charges:
               1
     1  C   -0.247287
     2  C    0.140406
     3  C    0.116450
     4  C   -0.240180
     5  C   -0.170141
     6  C   -0.166932
     7  H    0.169502
     8  H    0.195335
     9  H    0.170173
    10  H    0.167773
    11  N   -0.104070
    12  N   -0.326720
    13  C    0.184825
    14  C   -0.357510
    15  H    0.182208
    16  H    0.190983
    17  H    0.171804
    18  S    0.784438
    19  O   -0.516500
    20  O   -0.515060
    21  C   -0.297218
    22  C   -0.315721
    23  H    0.205883
    24  H    0.207833
    25  C   -0.134916
    26  H    0.180817
    27  H    0.186155
    28  C   -0.330275
    29  H    0.167486
    30  H    0.153060
    31  H    0.147400
 Sum of Mulliken charges =  -0.00000
 Mulliken charges with hydrogens summed into heavy atoms:
               1
     1  C   -0.077785
     2  C    0.140406
     3  C    0.116450
     4  C   -0.044846
     5  C    0.000032
     6  C    0.000840
    11  N   -0.104070
    12  N   -0.326720
    13  C    0.184825
    14  C    0.187485
    18  S    0.784438
    19  O   -0.516500
    20  O   -0.515060
    21  C    0.116499
    22  C    0.051251
    25  C    0.032570
    28  C   -0.029816
 Electronic spatial extent (au):  <R**2>=           5553.5006
 Charge=             -0.0000 electrons
 Dipole moment (field-independent basis, Debye):
    X=             -2.6166    Y=              0.9836    Z=              0.3507  Tot=              2.8173
 Quadrupole moment (field-independent basis, Debye-Ang):
   XX=            -87.4029   YY=           -102.7758   ZZ=           -114.6041
   XY=             13.8965   XZ=             -0.5601   YZ=             -2.2229
 Traceless Quadrupole moment (field-independent basis, Debye-Ang):
   XX=             14.1914   YY=             -1.1815   ZZ=            -13.0098
   XY=             13.8965   XZ=             -0.5601   YZ=             -2.2229
 Octapole moment (field-independent basis, Debye-Ang**2):
  XXX=            -33.1441  YYY=            -12.9426  ZZZ=              1.2681  XYY=            -30.6453
  XXY=             18.5974  XXZ=             13.2036  XZZ=             16.2606  YZZ=              1.4392
  YYZ=             -1.3927  XYZ=             -0.1640
 Hexadecapole moment (field-independent basis, Debye-Ang**3):
 XXXX=          -5521.1111 YYYY=          -1260.8481 ZZZZ=           -297.6084 XXXY=             85.2706
 XXXZ=             50.7565 YYYX=             28.5680 YYYZ=            -16.9323 ZZZX=              2.3020
 ZZZY=             -8.5787 XXYY=          -1091.6847 XXZZ=          -1090.8050 YYZZ=           -296.1405
 XXYZ=             -7.3323 YYXZ=             -8.5579 ZZXY=             34.3535
 N-N= 1.336336238463D+03 E-N=-5.308034147303D+03  KE= 1.119473875308D+03
 Unable to Open any file for archive entry.
 1\1\GINC-CLUSTER\SP\RM062X\def2TZVP\C12H14N2O2S1\KJIANG\21-Nov-2025\0\
 \# scrf=(solvent=n,n-dimethylformamide) def2tzvp m062x geom=allcheck\\
 Title Card Required\\0,1\C,0,-3.1703795383,2.5278382058,-0.4895234696\
 C,0,-2.5722991881,1.280890654,-0.2715208859\C,0,-3.354776562,0.1845522
 632,0.1453649573\C,0,-4.7314167938,0.285512181,0.3630511479\C,0,-5.301
 1690883,1.5279540266,0.1419172371\C,0,-4.5333583529,2.63388907,-0.2789
 169645\H,0,-2.5701797398,3.3718129321,-0.8115833263\H,0,-5.325490477,-
 0.5600470922,0.6938355424\H,0,-6.3673511631,1.655623029,0.2990551895\H
 ,0,-5.0278001898,3.5865466787,-0.4376342022\N,0,-2.4761811323,-0.87469
 52396,0.2547775342\N,0,-1.246887559,0.8998016584,-0.4011005971\C,0,-1.
 2577366237,-0.3608060877,-0.0775718103\C,0,-2.7751464032,-2.228919159,
 0.6935160245\H,0,-2.1077574071,-2.926664093,0.1854551982\H,0,-2.647827
 0421,-2.321687739,1.7743225016\H,0,-3.8043789013,-2.460468268,0.415061
 0614\S,0,0.2029623758,-1.3853878664,-0.0342392396\O,0,0.0975713724,-2.
 3684715013,-1.11203134\O,0,0.3590544623,-1.8549063075,1.341573644\C,0,
 1.5035505495,-0.2187104227,-0.4238962448\C,0,2.8369236697,-0.973704946
 7,-0.4497748563\H,0,1.4797783661,0.5577567934,0.3439372488\H,0,1.24926
 98422,0.2260473287,-1.3894019509\C,0,3.9525302756,-0.0381696764,-0.820
 8363804\H,0,3.0225148676,-1.4170504675,0.533692237\H,0,2.7633215712,-1
 .7910049246,-1.1770403123\C,0,4.9637270551,0.2731764709,-0.0169937837\
 H,0,3.8961418765,0.4046982002,-1.8150708272\H,0,5.7469783719,0.9574898
 332,-0.3263449367\H,0,5.0454817258,-0.1520800336,0.980157354\\Version=
 ES64L-G16RevC.02\State=1-A\HF=-1123.7924094\RMSD=2.949e-09\Dipole=-0.9
 034428,0.6340298,0.1017663\Quadrupole=14.0889685,-5.7084015,-8.380567,
 6.055155,-4.1361297,-2.8358793\PG=C01 [X(C12H14N2O2S1)]\\@
 The archive entry for this job was punched.


 DEFINE YOUR TERMS, YOU WILL PERMIT ME AGAIN TO SAY, 
 OR WE SHALL NEVER UNDERSTAND ONE ANOTHER.

                                    -- VOLTAIRE
 Job cpu time:       0 days  1 hours  6 minutes 38.4 seconds.
 Elapsed time:       0 days  0 hours  0 minutes 50.8 seconds.
 File lengths (MBytes):  RWF=    304 Int=      0 D2E=      0 Chk=     27 Scr=      1
 Normal termination of Gaussian 16 at Fri Nov 21 18:39:00 2025.
