 Entering Gaussian System, Link 0=g16
 Initial command:
 /public/software/g16/l1.exe "/tmp/Gau-12203.inp" -scrdir="/tmp/"
 Entering Link 1 = /public/software/g16/l1.exe PID=     12204.
  
 Copyright (c) 1988-2021, Gaussian, Inc.  All Rights Reserved.
  
 This is part of the Gaussian(R) 16 program.  It is based on
 the Gaussian(R) 09 system (copyright 2009, Gaussian, Inc.),
 the Gaussian(R) 03 system (copyright 2003, Gaussian, Inc.),
 the Gaussian(R) 98 system (copyright 1998, Gaussian, Inc.),
 the Gaussian(R) 94 system (copyright 1995, Gaussian, Inc.),
 the Gaussian 92(TM) system (copyright 1992, Gaussian, Inc.),
 the Gaussian 90(TM) system (copyright 1990, Gaussian, Inc.),
 the Gaussian 88(TM) system (copyright 1988, Gaussian, Inc.),
 the Gaussian 86(TM) system (copyright 1986, Carnegie Mellon
 University), and the Gaussian 82(TM) system (copyright 1983,
 Carnegie Mellon University). Gaussian is a federally registered
 trademark of Gaussian, Inc.
  
 This software contains proprietary and confidential information,
 including trade secrets, belonging to Gaussian, Inc.
  
 This software is provided under written license and may be
 used, copied, transmitted, or stored only in accord with that
 written license.
  
 The following legend is applicable only to US Government
 contracts under FAR:
  
                    RESTRICTED RIGHTS LEGEND
  
 Use, reproduction and disclosure by the US Government is
 subject to restrictions as set forth in subparagraphs (a)
 and (c) of the Commercial Computer Software - Restricted
 Rights clause in FAR 52.227-19.
  
 Gaussian, Inc.
 340 Quinnipiac St., Bldg. 40, Wallingford CT 06492
  
  
 ---------------------------------------------------------------
 Warning -- This program may not be used in any manner that
 competes with the business of Gaussian, Inc. or will provide
 assistance to any competitor of Gaussian, Inc.  The licensee
 of this program is prohibited from giving any competitor of
 Gaussian, Inc. access to this program.  By using this program,
 the user acknowledges that Gaussian, Inc. is engaged in the
 business of creating and licensing software in the field of
 computational chemistry and represents and warrants to the
 licensee that it is not a competitor of Gaussian, Inc. and that
 it will not use this program in any manner prohibited above.
 ---------------------------------------------------------------
  

 Cite this work as:
 Gaussian 16, Revision C.02,
 M. J. Frisch, G. W. Trucks, H. B. Schlegel, G. E. Scuseria, 
 M. A. Robb, J. R. Cheeseman, G. Scalmani, V. Barone, 
 G. A. Petersson, H. Nakatsuji, X. Li, M. Caricato, A. V. Marenich, 
 J. Bloino, B. G. Janesko, R. Gomperts, B. Mennucci, H. P. Hratchian, 
 J. V. Ortiz, A. F. Izmaylov, J. L. Sonnenberg, D. Williams-Young, 
 F. Ding, F. Lipparini, F. Egidi, J. Goings, B. Peng, A. Petrone, 
 T. Henderson, D. Ranasinghe, V. G. Zakrzewski, J. Gao, N. Rega, 
 G. Zheng, W. Liang, M. Hada, M. Ehara, K. Toyota, R. Fukuda, 
 J. Hasegawa, M. Ishida, T. Nakajima, Y. Honda, O. Kitao, H. Nakai, 
 T. Vreven, K. Throssell, J. A. Montgomery, Jr., J. E. Peralta, 
 F. Ogliaro, M. J. Bearpark, J. J. Heyd, E. N. Brothers, K. N. Kudin, 
 V. N. Staroverov, T. A. Keith, R. Kobayashi, J. Normand, 
 K. Raghavachari, A. P. Rendell, J. C. Burant, S. S. Iyengar, 
 J. Tomasi, M. Cossi, J. M. Millam, M. Klene, C. Adamo, R. Cammi, 
 J. W. Ochterski, R. L. Martin, K. Morokuma, O. Farkas, 
 J. B. Foresman, and D. J. Fox, Gaussian, Inc., Wallingford CT, 2019.
 
 ******************************************
 Gaussian 16:  ES64L-G16RevC.02  7-Dec-2021
                21-Nov-2025 
 ******************************************
 %nprocshared=96
 Will use up to   96 processors via shared memory.
 %mem=10GB
 %chk=TS1.chk
 -------------------------------------------------------------------
 # scrf=(solvent=n,n-dimethylformamide) def2tzvp m062x geom=allcheck
 -------------------------------------------------------------------
 1/29=7,38=1,172=1/1;
 2/12=2,40=1/2;
 3/5=44,7=101,11=2,14=-4,25=1,30=1,70=2201,72=148,74=-55/1,2,3;
 4//1;
 5/5=2,38=5,53=148/2;
 6/7=2,8=2,9=2,10=2,28=1/1;
 99/5=1,9=1/99;
 Structure from the checkpoint file:  "TS1.chk"
 -------------------
 Title Card Required
 -------------------
 Charge =  0 Multiplicity = 2
 Redundant internal coordinates found in file.  (old form).
 C,0,-2.6269570992,-1.7282671806,-1.3670518842
 C,0,-1.5229010427,-1.2231695837,-0.6605308982
 C,0,-1.7331483124,-0.445670657,0.5038565713
 C,0,-3.0072454117,-0.137310707,0.9839781772
 C,0,-4.0793354018,-0.649187082,0.2681337183
 C,0,-3.8908979836,-1.4344150333,-0.8891352451
 H,0,-2.473329739,-2.330098824,-2.2560828703
 H,0,-3.152866874,0.4670484553,1.8736778639
 H,0,-5.0894682509,-0.441280988,0.6058983033
 H,0,-4.7625902848,-1.8124951407,-1.413303852
 N,0,-0.4834836938,-0.1090024569,0.965708819
 N,0,-0.1874323998,-1.3636901387,-0.9037697113
 C,0,0.4100855858,-0.6047855963,0.0206931688
 C,0,-0.2521468493,0.6883780263,2.158214998
 H,0,-0.6551355393,1.6984185324,2.0206524492
 H,0,-0.7601630866,0.2141103037,3.0028752073
 H,0,0.8155187961,0.7390607356,2.3605586867
 S,0,2.0956407204,-1.0747670998,0.4817999925
 O,0,2.1377600871,-2.4694876329,0.8940030555
 O,0,2.6171488167,-0.0339043596,1.3750130056
 C,0,2.8292733407,-0.8502133258,-1.1342176437
 C,0,2.6048625033,0.6236304329,-1.4740077871
 H,0,2.2993768934,-1.5350922294,-1.8010961016
 H,0,3.880908654,-1.1352966324,-1.0526281342
 C,0,1.1674577968,1.038709009,-1.2310030436
 H,0,3.2690325576,1.2258340608,-0.8465500487
 H,0,2.883409511,0.7975134443,-2.5211807438
 C,0,0.9396406969,2.3453213686,-0.5292050215
 H,0,0.4721286859,0.8032863117,-2.0352631883
 H,0,1.293887667,2.2650607792,0.5099127448
 H,0,1.5938309745,3.1074740208,-0.9885830777
 C,0,-0.5021364171,2.849399121,-0.5822665375
 C,0,-0.684653729,4.1522856308,0.191468104
 H,0,-1.1839892276,2.0825055772,-0.1954292192
 H,0,-0.7845901283,2.9990554564,-1.6317710507
 H,0,-1.7174437467,4.5074244643,0.1409415262
 H,0,-0.4241961485,4.0226090029,1.2482529746
 H,0,-0.037507921,4.939443935,-0.2097723077
 Recover connectivity data from disk.
                           ----------------------------
                           !    Current Parameters    !
                           ! (Angstroms and Degrees)  !
 --------------------------                            --------------------------
 ! Name  Definition              Value                                          !
 --------------------------------------------------------------------------------
 ! R1    R(1,2)                  1.4047                                         !
 ! R2    R(1,6)                  1.3829                                         !
 ! R3    R(1,7)                  1.0845                                         !
 ! R4    R(2,3)                  1.4158                                         !
 ! R5    R(2,12)                 1.3647                                         !
 ! R6    R(3,4)                  1.396                                          !
 ! R7    R(3,11)                 1.3742                                         !
 ! R8    R(4,5)                  1.387                                          !
 ! R9    R(4,8)                  1.0854                                         !
 ! R10   R(5,6)                  1.4112                                         !
 ! R11   R(5,9)                  1.0852                                         !
 ! R12   R(6,10)                 1.0851                                         !
 ! R13   R(11,13)                1.3919                                         !
 ! R14   R(11,14)                1.4531                                         !
 ! R15   R(12,13)                1.337                                          !
 ! R16   R(13,18)                1.8096                                         !
 ! R17   R(14,15)                1.0961                                         !
 ! R18   R(14,16)                1.0938                                         !
 ! R19   R(14,17)                1.0879                                         !
 ! R20   R(18,19)                1.455                                          !
 ! R21   R(18,20)                1.4674                                         !
 ! R22   R(18,21)                1.7889                                         !
 ! R23   R(21,22)                1.5291                                         !
 ! R24   R(21,23)                1.093                                          !
 ! R25   R(21,24)                1.0926                                         !
 ! R26   R(22,25)                1.5157                                         !
 ! R27   R(22,26)                1.0943                                         !
 ! R28   R(22,27)                1.0974                                         !
 ! R29   R(25,28)                1.5006                                         !
 ! R30   R(25,29)                1.0889                                         !
 ! R31   R(28,30)                1.1008                                         !
 ! R32   R(28,31)                1.1045                                         !
 ! R33   R(28,32)                1.5283                                         !
 ! R34   R(32,33)                1.5263                                         !
 ! R35   R(32,34)                1.0967                                         !
 ! R36   R(32,35)                1.0971                                         !
 ! R37   R(33,36)                1.0933                                         !
 ! R38   R(33,37)                1.0961                                         !
 ! R39   R(33,38)                1.0952                                         !
 ! A1    A(2,1,6)              117.9138                                         !
 ! A2    A(2,1,7)              120.0334                                         !
 ! A3    A(6,1,7)              122.0527                                         !
 ! A4    A(1,2,3)              119.6297                                         !
 ! A5    A(1,2,12)             129.9755                                         !
 ! A6    A(3,2,12)             110.3926                                         !
 ! A7    A(2,3,4)              122.6613                                         !
 ! A8    A(2,3,11)             106.0163                                         !
 ! A9    A(4,3,11)             131.3198                                         !
 ! A10   A(3,4,5)              116.514                                          !
 ! A11   A(3,4,8)              121.8271                                         !
 ! A12   A(5,4,8)              121.6582                                         !
 ! A13   A(4,5,6)              121.6943                                         !
 ! A14   A(4,5,9)              119.2181                                         !
 ! A15   A(6,5,9)              119.0876                                         !
 ! A16   A(1,6,5)              121.5817                                         !
 ! A17   A(1,6,10)             119.5538                                         !
 ! A18   A(5,6,10)             118.8644                                         !
 ! A19   A(3,11,13)            105.567                                          !
 ! A20   A(3,11,14)            123.7146                                         !
 ! A21   A(13,11,14)           130.5763                                         !
 ! A22   A(2,12,13)            104.8121                                         !
 ! A23   A(11,13,12)           112.6268                                         !
 ! A24   A(11,13,18)           121.1641                                         !
 ! A25   A(12,13,18)           116.4262                                         !
 ! A26   A(11,14,15)           110.1288                                         !
 ! A27   A(11,14,16)           108.7755                                         !
 ! A28   A(11,14,17)           109.5402                                         !
 ! A29   A(15,14,16)           109.0075                                         !
 ! A30   A(15,14,17)           109.9522                                         !
 ! A31   A(16,14,17)           109.4138                                         !
 ! A32   A(13,18,19)           110.3723                                         !
 ! A33   A(13,18,20)           107.5732                                         !
 ! A34   A(13,18,21)            96.8462                                         !
 ! A35   A(19,18,20)           119.8164                                         !
 ! A36   A(19,18,21)           111.3697                                         !
 ! A37   A(20,18,21)           108.3666                                         !
 ! A38   A(18,21,22)           105.1621                                         !
 ! A39   A(18,21,23)           105.8847                                         !
 ! A40   A(18,21,24)           107.1279                                         !
 ! A41   A(22,21,23)           113.4064                                         !
 ! A42   A(22,21,24)           114.1633                                         !
 ! A43   A(23,21,24)           110.4076                                         !
 ! A44   A(21,22,25)           111.562                                          !
 ! A45   A(21,22,26)           108.297                                          !
 ! A46   A(21,22,27)           109.1178                                         !
 ! A47   A(25,22,26)           109.4476                                         !
 ! A48   A(25,22,27)           110.5046                                         !
 ! A49   A(26,22,27)           107.8112                                         !
 ! A50   A(22,25,28)           117.22                                           !
 ! A51   A(22,25,29)           115.3365                                         !
 ! A52   A(28,25,29)           115.8962                                         !
 ! A53   A(25,28,30)           109.2172                                         !
 ! A54   A(25,28,31)           108.4466                                         !
 ! A55   A(25,28,32)           114.4686                                         !
 ! A56   A(30,28,31)           104.6153                                         !
 ! A57   A(30,28,32)           111.1264                                         !
 ! A58   A(31,28,32)           108.4658                                         !
 ! A59   A(28,32,33)           112.1341                                         !
 ! A60   A(28,32,34)           110.1                                            !
 ! A61   A(28,32,35)           108.7288                                         !
 ! A62   A(33,32,34)           110.107                                          !
 ! A63   A(33,32,35)           109.7379                                         !
 ! A64   A(34,32,35)           105.8281                                         !
 ! A65   A(32,33,36)           111.5198                                         !
 ! A66   A(32,33,37)           111.0604                                         !
 ! A67   A(32,33,38)           110.9261                                         !
 ! A68   A(36,33,37)           107.9058                                         !
 ! A69   A(36,33,38)           107.9263                                         !
 ! A70   A(37,33,38)           107.3285                                         !
 ! D1    D(6,1,2,3)              0.2568                                         !
 ! D2    D(6,1,2,12)           179.6635                                         !
 ! D3    D(7,1,2,3)           -179.5945                                         !
 ! D4    D(7,1,2,12)            -0.1878                                         !
 ! D5    D(2,1,6,5)              0.2119                                         !
 ! D6    D(2,1,6,10)          -179.8947                                         !
 ! D7    D(7,1,6,5)           -179.9401                                         !
 ! D8    D(7,1,6,10)            -0.0466                                         !
 ! D9    D(1,2,3,4)             -0.8049                                         !
 ! D10   D(1,2,3,11)           179.7193                                         !
 ! D11   D(12,2,3,4)           179.6802                                         !
 ! D12   D(12,2,3,11)            0.2043                                         !
 ! D13   D(1,2,12,13)          175.8095                                         !
 ! D14   D(3,2,12,13)           -4.7408                                         !
 ! D15   D(2,3,4,5)              0.825                                          !
 ! D16   D(2,3,4,8)           -179.4774                                         !
 ! D17   D(11,3,4,5)          -179.8458                                         !
 ! D18   D(11,3,4,8)            -0.1482                                         !
 ! D19   D(2,3,11,13)            4.2567                                         !
 ! D20   D(2,3,11,14)         -179.6707                                         !
 ! D21   D(4,3,11,13)         -175.1558                                         !
 ! D22   D(4,3,11,14)            0.9168                                         !
 ! D23   D(3,4,5,6)             -0.3376                                         !
 ! D24   D(3,4,5,9)            179.6499                                         !
 ! D25   D(8,4,5,6)            179.9642                                         !
 ! D26   D(8,4,5,9)             -0.0483                                         !
 ! D27   D(4,5,6,1)             -0.1734                                         !
 ! D28   D(4,5,6,10)           179.9324                                         !
 ! D29   D(9,5,6,1)            179.8391                                         !
 ! D30   D(9,5,6,10)            -0.0551                                         !
 ! D31   D(3,11,13,12)          -7.7154                                         !
 ! D32   D(3,11,13,18)        -152.3565                                         !
 ! D33   D(14,11,13,12)        176.5864                                         !
 ! D34   D(14,11,13,18)         31.9453                                         !
 ! D35   D(3,11,14,15)         -64.0487                                         !
 ! D36   D(3,11,14,16)          55.3558                                         !
 ! D37   D(3,11,14,17)         174.9054                                         !
 ! D38   D(13,11,14,15)        110.9678                                         !
 ! D39   D(13,11,14,16)       -129.6277                                         !
 ! D40   D(13,11,14,17)        -10.0781                                         !
 ! D41   D(2,12,13,11)           7.7115                                         !
 ! D42   D(2,12,13,18)         154.141                                          !
 ! D43   D(11,13,18,19)         89.1095                                         !
 ! D44   D(11,13,18,20)        -43.2647                                         !
 ! D45   D(11,13,18,21)       -155.0369                                         !
 ! D46   D(12,13,18,19)        -54.2722                                         !
 ! D47   D(12,13,18,20)        173.3536                                         !
 ! D48   D(12,13,18,21)         61.5814                                         !
 ! D49   D(13,18,21,22)         60.297                                          !
 ! D50   D(13,18,21,23)        -60.0365                                         !
 ! D51   D(13,18,21,24)       -177.8803                                         !
 ! D52   D(19,18,21,22)        175.3516                                         !
 ! D53   D(19,18,21,23)         55.0181                                         !
 ! D54   D(19,18,21,24)        -62.8256                                         !
 ! D55   D(20,18,21,22)        -50.8201                                         !
 ! D56   D(20,18,21,23)       -171.1536                                         !
 ! D57   D(20,18,21,24)         71.0026                                         !
 ! D58   D(18,21,22,25)        -48.4417                                         !
 ! D59   D(18,21,22,26)         72.0708                                         !
 ! D60   D(18,21,22,27)       -170.8262                                         !
 ! D61   D(23,21,22,25)         66.7915                                         !
 ! D62   D(23,21,22,26)       -172.696                                          !
 ! D63   D(23,21,22,27)        -55.593                                          !
 ! D64   D(24,21,22,25)       -165.5713                                         !
 ! D65   D(24,21,22,26)        -45.0589                                         !
 ! D66   D(24,21,22,27)         72.0441                                         !
 ! D67   D(21,22,25,28)        135.4685                                         !
 ! D68   D(21,22,25,29)        -82.6307                                         !
 ! D69   D(26,22,25,28)         15.6325                                         !
 ! D70   D(26,22,25,29)        157.5334                                         !
 ! D71   D(27,22,25,28)       -102.947                                          !
 ! D72   D(27,22,25,29)         38.9538                                         !
 ! D73   D(22,25,28,30)        -67.2764                                         !
 ! D74   D(22,25,28,31)         46.1743                                         !
 ! D75   D(22,25,28,32)        167.4148                                         !
 ! D76   D(29,25,28,30)        151.034                                          !
 ! D77   D(29,25,28,31)        -95.5153                                         !
 ! D78   D(29,25,28,32)         25.7252                                         !
 ! D79   D(25,28,32,33)        177.8268                                         !
 ! D80   D(25,28,32,34)         54.8674                                         !
 ! D81   D(25,28,32,35)        -60.6479                                         !
 ! D82   D(30,28,32,33)         53.5271                                         !
 ! D83   D(30,28,32,34)        -69.4323                                         !
 ! D84   D(30,28,32,35)        175.0524                                         !
 ! D85   D(31,28,32,33)        -60.9433                                         !
 ! D86   D(31,28,32,34)        176.0974                                         !
 ! D87   D(31,28,32,35)         60.5821                                         !
 ! D88   D(28,32,33,36)        179.5915                                         !
 ! D89   D(28,32,33,37)        -60.0117                                         !
 ! D90   D(28,32,33,38)         59.2602                                         !
 ! D91   D(34,32,33,36)        -57.4532                                         !
 ! D92   D(34,32,33,37)         62.9437                                         !
 ! D93   D(34,32,33,38)       -177.7844                                         !
 ! D94   D(35,32,33,36)         58.6467                                         !
 ! D95   D(35,32,33,37)        179.0436                                         !
 ! D96   D(35,32,33,38)        -61.6846                                         !
 --------------------------------------------------------------------------------
                          Input orientation:                          
 ---------------------------------------------------------------------
 Center     Atomic      Atomic             Coordinates (Angstroms)
 Number     Number       Type             X           Y           Z
 ---------------------------------------------------------------------
      1          6           0       -2.626957   -1.728267   -1.367052
      2          6           0       -1.522901   -1.223170   -0.660531
      3          6           0       -1.733148   -0.445671    0.503857
      4          6           0       -3.007245   -0.137311    0.983978
      5          6           0       -4.079335   -0.649187    0.268134
      6          6           0       -3.890898   -1.434415   -0.889135
      7          1           0       -2.473330   -2.330099   -2.256083
      8          1           0       -3.152867    0.467048    1.873678
      9          1           0       -5.089468   -0.441281    0.605898
     10          1           0       -4.762590   -1.812495   -1.413304
     11          7           0       -0.483484   -0.109002    0.965709
     12          7           0       -0.187432   -1.363690   -0.903770
     13          6           0        0.410086   -0.604786    0.020693
     14          6           0       -0.252147    0.688378    2.158215
     15          1           0       -0.655136    1.698419    2.020652
     16          1           0       -0.760163    0.214110    3.002875
     17          1           0        0.815519    0.739061    2.360559
     18         16           0        2.095641   -1.074767    0.481800
     19          8           0        2.137760   -2.469488    0.894003
     20          8           0        2.617149   -0.033904    1.375013
     21          6           0        2.829273   -0.850213   -1.134218
     22          6           0        2.604863    0.623630   -1.474008
     23          1           0        2.299377   -1.535092   -1.801096
     24          1           0        3.880909   -1.135297   -1.052628
     25          6           0        1.167458    1.038709   -1.231003
     26          1           0        3.269033    1.225834   -0.846550
     27          1           0        2.883410    0.797513   -2.521181
     28          6           0        0.939641    2.345321   -0.529205
     29          1           0        0.472129    0.803286   -2.035263
     30          1           0        1.293888    2.265061    0.509913
     31          1           0        1.593831    3.107474   -0.988583
     32          6           0       -0.502136    2.849399   -0.582267
     33          6           0       -0.684654    4.152286    0.191468
     34          1           0       -1.183989    2.082506   -0.195429
     35          1           0       -0.784590    2.999055   -1.631771
     36          1           0       -1.717444    4.507424    0.140942
     37          1           0       -0.424196    4.022609    1.248253
     38          1           0       -0.037508    4.939444   -0.209772
 ---------------------------------------------------------------------
                    Distance matrix (angstroms):
                    1          2          3          4          5
     1  C    0.000000
     2  C    1.404719   0.000000
     3  C    2.438083   1.415806   0.000000
     4  C    2.864106   2.467140   1.396039   0.000000
     5  C    2.438780   2.779790   2.366765   1.387021   0.000000
     6  C    1.382859   2.388366   2.752077   2.443742   1.411157
     7  H    1.084518   2.162034   3.422894   3.948592   3.431674
     8  H    3.949471   3.454828   2.173722   1.085367   2.163816
     9  H    3.407760   3.864660   3.357874   2.137988   1.085209
    10  H    2.137794   3.377804   3.836826   3.410929   2.155773
    11  N    3.557846   2.228545   1.374160   2.523987   3.702507
    12  N    2.509747   1.364693   2.283289   3.608177   4.126837
    13  C    3.523021   2.140771   2.202775   3.581145   4.496454
    14  C    4.889520   3.635128   2.493258   3.106632   4.473126
    15  H    5.206419   4.059241   2.838996   3.158642   4.506409
    16  H    5.133616   4.008502   2.761721   3.041187   4.386456
    17  H    5.642112   4.294827   3.368477   4.156504   5.501370
    18  S    5.113536   3.797471   3.880190   5.212529   6.193311
    19  O    5.325815   4.167772   4.385428   5.649622   6.508263
    20  O    6.155520   4.764221   4.455732   5.638919   6.815178
    21  C    5.531333   4.393734   4.864425   6.249795   7.052367
    22  C    5.737142   4.594654   4.886071   6.173855   7.023790
    23  H    4.949190   4.000999   4.770839   6.153915   6.764208
    24  H    6.542384   5.418729   5.866504   7.251924   8.083700
    25  C    4.698111   3.560838   3.691427   4.870042   5.711851
    26  H    6.615159   5.384687   5.444202   6.678373   7.665294
    27  H    6.170553   5.192374   5.657646   6.918081   7.638916
    28  C    5.478753   4.337682   4.000082   4.902152   5.898555
    29  H    4.057044   3.158569   3.587516   4.701764   5.303880
    30  H    5.902770   4.633788   4.063379   4.949331   6.117420
    31  H    6.429828   5.345663   5.091267   5.965696   6.919296
    32  C    5.107424   4.199274   3.681377   4.201087   5.075395
    33  C    6.386112   5.506730   4.726323   4.941977   5.880806
    34  H    4.239911   3.355394   2.679972   3.105294   4.007501
    35  H    5.080548   4.394951   4.162548   4.649638   5.270167
    36  H    6.479592   5.789638   4.966398   4.893655   5.673214
    37  H    6.690632   5.689359   4.715189   4.903766   6.012184
    38  H    7.245889   6.355107   5.690687   6.001485   6.913578
                    6          7          8          9         10
     6  C    0.000000
     7  H    2.163399   0.000000
     8  H    3.434150   5.033957   0.000000
     9  H    2.158243   4.313091   2.486514   0.000000
    10  H    1.085147   2.493773   4.311818   2.462571   0.000000
    11  N    4.099712   4.390068   2.877820   4.631951   5.183854
    12  N    3.704170   2.826309   4.456413   5.211515   4.625270
    13  C    4.473760   4.058879   4.156562   5.533018   5.501953
    14  C    5.199337   5.790586   2.923033   5.204373   6.273294
    15  H    5.362058   6.150223   2.788644   5.122807   6.402324
    16  H    5.259932   6.088069   2.657837   4.991785   6.295172
    17  H    6.118404   6.445901   4.007384   6.272233   7.201929
    18  S    6.152029   5.472417   5.644586   7.214049   7.153390
    19  O    6.371474   5.586110   6.129742   7.511954   7.305487
    20  O    7.031534   6.661106   5.813149   7.755607   8.086943
    21  C    6.749967   5.618384   6.824120   8.117986   7.657693
    22  C    6.839045   5.926567   6.662054   8.041317   7.760010
    23  H    6.257900   4.859812   6.873099   7.847616   7.078045
    24  H    7.779279   6.576641   7.784907   9.148772   8.677486
    25  C    5.640938   5.065075   5.350798   6.686830   6.582406
    26  H    7.638281   6.899722   7.015425   8.646006   8.605790
    27  H    7.316852   6.208614   7.473996   8.653324   8.154805
    28  C    6.144108   6.040698   5.103957   6.738232   7.112279
    29  H    5.035565   4.306111   5.341673   6.281404   5.884847
    30  H    6.521155   6.554247   4.986615   6.934027   7.550242
    31  H    7.121861   6.907644   6.139668   7.733209   8.049259
    32  C    5.470735   5.789168   4.328236   5.769222   6.369878
    33  C    6.531380   7.156198   4.743720   6.377695   7.401586
    34  H    4.491916   5.037834   3.281369   4.718516   5.427765
    35  H    5.464093   5.625077   4.930311   5.947693   6.246858
    36  H    6.410181   7.284835   4.624657   6.006365   7.185400
    37  H    6.809226   7.538980   4.525352   6.488736   7.742996
    38  H    7.479053   7.935166   5.835113   7.425619   8.328480
                   11         12         13         14         15
    11  N    0.000000
    12  N    2.270867   0.000000
    13  C    1.391877   1.337010   0.000000
    14  C    1.453067   3.686587   2.584535   0.000000
    15  H    2.099795   4.259988   3.230988   1.096132   0.000000
    16  H    2.081106   4.251982   3.306582   1.093829   1.782965
    17  H    2.086199   4.010401   2.728602   1.087852   1.788499
    18  S    2.796203   2.686206   1.809585   3.380999   4.198261
    19  O    3.528165   3.140270   2.687870   4.157163   5.142086
    20  O    3.128433   3.850566   2.651644   3.060711   3.758409
    21  C    3.991672   3.068758   2.691937   4.764717   5.346946
    22  C    4.003355   3.474410   2.925779   4.621660   4.898511
    23  H    4.175315   2.649301   2.784566   5.208669   5.812959
    24  H    4.916796   4.077465   3.671522   5.542333   6.168524
    25  C    2.977985   2.777468   2.200325   3.691180   3.785542
    26  H    4.375780   4.319266   3.503835   4.660062   4.882958
    27  H    4.931140   4.088629   3.813777   5.633859   5.827622
    28  C    3.206830   3.894529   3.047285   3.374618   3.076291
    29  H    3.278917   2.532012   2.492684   4.257116   4.303770
    30  H    3.000496   4.166610   3.042443   2.755549   2.530239
    31  H    4.298862   4.813668   4.025017   4.377442   4.012329
    32  C    3.338969   4.237042   3.623134   3.498964   2.850150
    33  C    4.335723   5.645597   4.884398   4.006721   3.060760
    34  H    2.577141   3.656656   3.131983   2.889907   2.310460
    35  H    4.061723   4.463198   4.140720   4.470651   3.879254
    36  H    4.849154   6.156488   5.538550   4.560877   3.542926
    37  H    4.141686   5.805125   4.859600   3.460452   2.460040
    38  H    5.202640   6.342997   5.567040   4.870831   3.982525
                   16         17         18         19         20
    16  H    0.000000
    17  H    1.780707   0.000000
    18  S    4.021522   2.908336   0.000000
    19  O    4.477387   3.767478   1.454968   0.000000
    20  O    3.757350   2.194230   1.467377   2.528488   0.000000
    21  C    5.579639   4.335258   1.788897   2.685874   2.647186
    22  C    5.615477   4.233081   2.639895   3.923396   2.923940
    23  H    5.958073   4.969203   2.337739   2.857057   3.527352
    24  H    6.309323   4.955772   2.354849   2.933940   2.950186
    25  C    4.724554   3.621183   2.874369   4.214805   3.169136
    26  H    5.663575   4.067213   2.904157   4.238479   2.635761
    27  H    6.643130   5.301978   3.625453   4.784639   3.992803
    28  C    4.461724   3.308506   3.749063   5.161724   3.478620
    29  H    5.220011   4.409682   3.535319   4.697444   4.114849
    30  H    3.826275   2.445895   3.434829   4.824479   2.790100
    31  H    5.463019   4.175153   4.461500   5.911217   4.062268
    32  C    4.456968   3.853565   4.824911   6.118740   4.676999
    33  C    4.839312   4.313418   5.927597   7.232389   5.461398
    34  H    3.728228   3.512257   4.602497   5.739471   4.625379
    35  H    5.407075   4.858665   5.418389   6.695120   5.459984
    36  H    5.247818   5.054025   6.768801   8.006685   6.398069
    37  H    4.206689   3.681821   5.737619   6.988307   5.071602
    38  H    5.759524   4.997747   6.418670   7.800152   5.856017
                   21         22         23         24         25
    21  C    0.000000
    22  C    1.529063   0.000000
    23  H    1.092967   2.204630   0.000000
    24  H    1.092642   2.213522   1.794793   0.000000
    25  C    2.517742   1.515742   2.868920   3.481513   0.000000
    26  H    2.141521   1.094292   3.078003   2.447815   2.144630
    27  H    2.154437   1.097449   2.510113   2.624387   2.160376
    28  C    3.761408   2.574847   4.303975   4.586909   1.500552
    29  H    3.016965   2.212654   2.976858   4.042704   1.088917
    30  H    3.842591   2.889444   4.559927   4.549356   2.133240
    31  H    4.148592   2.725307   4.765647   4.820366   2.126112
    32  C    5.008999   3.924626   5.343949   5.942232   2.546959
    33  C    6.255407   5.103541   6.724657   7.095820   3.892056
    34  H    5.058502   4.256580   5.272478   6.061537   2.773306
    35  H    5.303248   4.141971   5.486166   6.260603   2.795365
    36  H    7.141635   6.031107   7.511216   8.037814   4.715599
    37  H    6.325000   5.304616   6.899596   7.101547   4.193296
    38  H    6.526344   5.216000   7.064911   7.277834   4.208395
                   26         27         28         29         30
    26  H    0.000000
    27  H    1.771031   0.000000
    28  C    2.603848   3.184637   0.000000
    29  H    3.068266   2.459761   2.205595   0.000000
    30  H    2.611739   3.723950   1.100772   3.047949   0.000000
    31  H    2.523300   3.057415   1.104477   2.768219   1.745026
    32  C    4.114307   4.408123   1.528277   2.692020   2.181745
    33  C    5.027249   5.598574   2.534329   4.184767   2.752753
    34  H    4.581184   4.858401   2.165706   2.786417   2.582771
    35  H    4.493634   4.369446   2.148486   2.561943   3.073374
    36  H    6.050531   6.482144   3.490542   4.821901   3.772592
    37  H    5.084298   5.962393   2.798696   4.684967   2.566307
    38  H    5.012943   5.570454   2.790399   4.549719   3.072928
                   31         32         33         34         35
    31  H    0.000000
    32  C    2.150529   0.000000
    33  C    2.770495   1.526267   0.000000
    34  H    3.065280   1.096673   2.164027   0.000000
    35  H    2.466238   1.097104   2.159659   1.750046   0.000000
    36  H    3.768319   2.179231   1.093312   2.505584   2.507569
    37  H    3.148546   2.175614   1.096106   2.534858   3.077675
    38  H    2.573699   2.173228   1.095176   3.078428   2.518992
                   36         37         38
    36  H    0.000000
    37  H    1.770219   0.000000
    38  H    1.769696   1.765206   0.000000
 Stoichiometry    C14H19N2O2S(2)
 Framework group  C1[X(C14H19N2O2S)]
 Deg. of freedom   108
 Full point group                 C1      NOp   1
 Largest Abelian subgroup         C1      NOp   1
 Largest concise Abelian subgroup C1      NOp   1
                         Standard orientation:                         
 ---------------------------------------------------------------------
 Center     Atomic      Atomic             Coordinates (Angstroms)
 Number     Number       Type             X           Y           Z
 ---------------------------------------------------------------------
      1          6           0       -2.714356   -1.648895   -1.325541
      2          6           0       -1.583987   -1.182500   -0.634183
      3          6           0       -1.751215   -0.375449    0.516995
      4          6           0       -3.006864   -0.000327    0.998199
      5          6           0       -4.105669   -0.475129    0.297471
      6          6           0       -3.960538   -1.288770   -0.846333
      7          1           0       -2.593943   -2.272963   -2.204301
      8          1           0       -3.119159    0.625909    1.877538
      9          1           0       -5.103115   -0.215016    0.636765
     10          1           0       -4.851849   -1.635716   -1.358913
     11          7           0       -0.484618   -0.088348    0.966014
     12          7           0       -0.257884   -1.388567   -0.881919
     13          6           0        0.379463   -0.641499    0.025424
     14          6           0       -0.209650    0.718773    2.142599
     15          1           0       -0.566745    1.743641    1.988861
     16          1           0       -0.733681    0.283541    2.998418
     17          1           0        0.860439    0.723956    2.338315
     18         16           0        2.044498   -1.180108    0.486030
     19          8           0        2.025159   -2.567691    0.923261
     20          8           0        2.618652   -0.148490    1.357413
     21          6           0        2.777719   -1.018457   -1.137673
     22          6           0        2.619033    0.457825   -1.502973
     23          1           0        2.212896   -1.690088   -1.789181
     24          1           0        3.815660   -1.350056   -1.056507
     25          6           0        1.203689    0.942796   -1.259914
     26          1           0        3.313954    1.040006   -0.890090
     27          1           0        2.898825    0.599957   -2.554595
     28          6           0        1.040328    2.270846   -0.580757
     29          1           0        0.493373    0.725217   -2.056062
     30          1           0        1.396896    2.193001    0.457750
     31          1           0        1.725941    2.993790   -1.057367
     32          6           0       -0.377121    2.839610   -0.635305
     33          6           0       -0.494959    4.163145    0.115603
     34          1           0       -1.091028    2.111904   -0.230990
     35          1           0       -0.658854    2.983282   -1.685839
     36          1           0       -1.510672    4.564404    0.064122
     37          1           0       -0.234238    4.040569    1.173170
     38          1           0        0.185119    4.912429   -0.303297
 ---------------------------------------------------------------------
 Rotational constants (GHZ):           0.4756892           0.3162293           0.2456476
 Standard basis: def2TZVP (5D, 7F)
 There are   804 symmetry adapted cartesian basis functions of A   symmetry.
 There are   709 symmetry adapted basis functions of A   symmetry.
   709 basis functions,  1139 primitive gaussians,   804 cartesian basis functions
    75 alpha electrons       74 beta electrons
       nuclear repulsion energy      1726.6351721267 Hartrees.
 NAtoms=   38 NActive=   38 NUniq=   38 SFac= 1.00D+00 NAtFMM=   60 NAOKFM=F Big=F
 Integral buffers will be    131072 words long.
 Raffenetti 2 integral format.
 Two-electron integral symmetry is turned on.
 ------------------------------------------------------------------------------
 Polarizable Continuum Model (PCM)
 =================================
 Model                : PCM.
 Atomic radii         : UFF (Universal Force Field).
 Polarization charges : Total charges.
 Charge compensation  : None.
 Solution method      : On-the-fly selection.
 Cavity type          : Scaled VdW (van der Waals Surface) (Alpha=1.100).
 Cavity algorithm     : GePol (No added spheres)
                        Default sphere list used, NSphG=   38.
                        Lebedev-Laikov grids with approx.  5.0 points / Ang**2.
                        Smoothing algorithm: York/Karplus (Gamma=1.0000).
                        Polarization charges: spherical gaussians, with
                                              point-specific exponents (IZeta= 3).
                        Self-potential: point-specific (ISelfS= 7).
                        Self-field    : sphere-specific E.n sum rule (ISelfD= 2).
 Solvent              : n,n-DiMethylFormamide, Eps=  37.219000 Eps(inf)=   2.046330
 ------------------------------------------------------------------------------
 One-electron integrals computed using PRISM.
   1 Symmetry operations used in ECPInt.
 ECPInt:  NShTT=   41328 NPrTT=  126240 LenC2=   37943 LenP2D=   83645.
 LDataN:  DoStor=T MaxTD1= 6 Len=  172
 Number of processors reduced to  36 by ecpmxn.
 NBasis=   709 RedAO= T EigKep=  7.94D-06  NBF=   709
 NBsUse=   709 1.00D-06 EigRej= -1.00D+00 NBFU=   709
 ExpMin= 9.52D-02 ExpMax= 6.07D+04 ExpMxC= 2.07D+03 IAcc=3 IRadAn=         5 AccDes= 0.00D+00
 Harris functional with IExCor= 1009 and IRadAn=       5 diagonalized for initial guess.
 HarFok:  IExCor= 1009 AccDes= 0.00D+00 IRadAn=         5 IDoV= 1 UseB2=F ITyADJ=14
 ICtDFT=  3500011 ScaDFX=  1.000000  1.000000  1.000000  1.000000
 FoFCou: FMM=F IPFlag=           0 FMFlag=      100000 FMFlg1=           0
         NFxFlg=           0 DoJE=T BraDBF=F KetDBF=T FulRan=T
         wScrn=  0.000000 ICntrl=       500 IOpCl=  0 I1Cent=   200000004 NGrid=           0
         NMat0=    1 NMatS0=      1 NMatT0=    0 NMatD0=    1 NMtDS0=    0 NMtDT0=    0
 Petite list used in FoFCou.
 Initial guess <Sx>= 0.0000 <Sy>= 0.0000 <Sz>= 0.5000 <S**2>= 0.7500 S= 0.5000
 Requested convergence on RMS density matrix=1.00D-08 within 128 cycles.
 Requested convergence on MAX density matrix=1.00D-06.
 Requested convergence on             energy=1.00D-06.
 No special actions if energy rises.
 Inv3:  Mode=1 IEnd=    20233227.
 Iteration    1 A*A^-1 deviation from unit magnitude is 2.89D-15 for    114.
 Iteration    1 A*A^-1 deviation from orthogonality  is 2.39D-15 for   1947    347.
 Iteration    1 A^-1*A deviation from unit magnitude is 2.89D-15 for   1895.
 Iteration    1 A^-1*A deviation from orthogonality  is 2.25D-15 for   2352   1241.
 Error on total polarization charges =  0.01619
 SCF Done:  E(UM062X) =  -1202.95739099     A.U. after   18 cycles
            NFock= 18  Conv=0.72D-08     -V/T= 2.0040
 <Sx>= 0.0000 <Sy>= 0.0000 <Sz>= 0.5000 <S**2>= 0.7763 S= 0.5131
 <L.S>=  0.00000000000    
 Annihilation of the first spin contaminant:
 S**2 before annihilation     0.7763,   after     0.7503

 **********************************************************************

            Population analysis using the SCF Density.

 **********************************************************************

 Orbital symmetries:
 Alpha Orbitals:
       Occupied  (A) (A) (A) (A) (A) (A) (A) (A) (A) (A) (A) (A)
                 (A) (A) (A) (A) (A) (A) (A) (A) (A) (A) (A) (A)
                 (A) (A) (A) (A) (A) (A) (A) (A) (A) (A) (A) (A)
                 (A) (A) (A) (A) (A) (A) (A) (A) (A) (A) (A) (A)
                 (A) (A) (A) (A) (A) (A) (A) (A) (A) (A) (A) (A)
                 (A) (A) (A) (A) (A) (A) (A) (A) (A) (A) (A) (A)
                 (A) (A) (A)
       Virtual   (A) (A) (A) (A) (A) (A) (A) (A) (A) (A) (A) (A)
                 (A) (A) (A) (A) (A) (A) (A) (A) (A) (A) (A) (A)
                 (A) (A) (A) (A) (A) (A) (A) (A) (A) (A) (A) (A)
                 (A) (A) (A) (A) (A) (A) (A) (A) (A) (A) (A) (A)
                 (A) (A) (A) (A) (A) (A) (A) (A) (A) (A) (A) (A)
                 (A) (A) (A) (A) (A) (A) (A) (A) (A) (A) (A) (A)
                 (A) (A) (A) (A) (A) (A) (A) (A) (A) (A) (A) (A)
                 (A) (A) (A) (A) (A) (A) (A) (A) (A) (A) (A) (A)
                 (A) (A) (A) (A) (A) (A) (A) (A) (A) (A) (A) (A)
                 (A) (A) (A) (A) (A) (A) (A) (A) (A) (A) (A) (A)
                 (A) (A) (A) (A) (A) (A) (A) (A) (A) (A) (A) (A)
                 (A) (A) (A) (A) (A) (A) (A) (A) (A) (A) (A) (A)
                 (A) (A) (A) (A) (A) (A) (A) (A) (A) (A) (A) (A)
                 (A) (A) (A) (A) (A) (A) (A) (A) (A) (A) (A) (A)
                 (A) (A) (A) (A) (A) (A) (A) (A) (A) (A) (A) (A)
                 (A) (A) (A) (A) (A) (A) (A) (A) (A) (A) (A) (A)
                 (A) (A) (A) (A) (A) (A) (A) (A) (A) (A) (A) (A)
                 (A) (A) (A) (A) (A) (A) (A) (A) (A) (A) (A) (A)
                 (A) (A) (A) (A) (A) (A) (A) (A) (A) (A) (A) (A)
                 (A) (A) (A) (A) (A) (A) (A) (A) (A) (A) (A) (A)
                 (A) (A) (A) (A) (A) (A) (A) (A) (A) (A) (A) (A)
                 (A) (A) (A) (A) (A) (A) (A) (A) (A) (A) (A) (A)
                 (A) (A) (A) (A) (A) (A) (A) (A) (A) (A) (A) (A)
                 (A) (A) (A) (A) (A) (A) (A) (A) (A) (A) (A) (A)
                 (A) (A) (A) (A) (A) (A) (A) (A) (A) (A) (A) (A)
                 (A) (A) (A) (A) (A) (A) (A) (A) (A) (A) (A) (A)
                 (A) (A) (A) (A) (A) (A) (A) (A) (A) (A) (A) (A)
                 (A) (A) (A) (A) (A) (A) (A) (A) (A) (A) (A) (A)
                 (A) (A) (A) (A) (A) (A) (A) (A) (A) (A) (A) (A)
                 (A) (A) (A) (A) (A) (A) (A) (A) (A) (A) (A) (A)
                 (A) (A) (A) (A) (A) (A) (A) (A) (A) (A) (A) (A)
                 (A) (A) (A) (A) (A) (A) (A) (A) (A) (A) (A) (A)
                 (A) (A) (A) (A) (A) (A) (A) (A) (A) (A) (A) (A)
                 (A) (A) (A) (A) (A) (A) (A) (A) (A) (A) (A) (A)
                 (A) (A) (A) (A) (A) (A) (A) (A) (A) (A) (A) (A)
                 (A) (A) (A) (A) (A) (A) (A) (A) (A) (A) (A) (A)
                 (A) (A) (A) (A) (A) (A) (A) (A) (A) (A) (A) (A)
                 (A) (A) (A) (A) (A) (A) (A) (A) (A) (A) (A) (A)
                 (A) (A) (A) (A) (A) (A) (A) (A) (A) (A) (A) (A)
                 (A) (A) (A) (A) (A) (A) (A) (A) (A) (A) (A) (A)
                 (A) (A) (A) (A) (A) (A) (A) (A) (A) (A) (A) (A)
                 (A) (A) (A) (A) (A) (A) (A) (A) (A) (A) (A) (A)
                 (A) (A) (A) (A) (A) (A) (A) (A) (A) (A) (A) (A)
                 (A) (A) (A) (A) (A) (A) (A) (A) (A) (A) (A) (A)
                 (A) (A) (A) (A) (A) (A) (A) (A) (A) (A) (A) (A)
                 (A) (A) (A) (A) (A) (A) (A) (A) (A) (A) (A) (A)
                 (A) (A) (A) (A) (A) (A) (A) (A) (A) (A) (A) (A)
                 (A) (A) (A) (A) (A) (A) (A) (A) (A) (A) (A) (A)
                 (A) (A) (A) (A) (A) (A) (A) (A) (A) (A) (A) (A)
                 (A) (A) (A) (A) (A) (A) (A) (A) (A) (A) (A) (A)
                 (A) (A) (A) (A) (A) (A) (A) (A) (A) (A) (A) (A)
                 (A) (A) (A) (A) (A) (A) (A) (A) (A) (A) (A) (A)
                 (A) (A) (A) (A) (A) (A) (A) (A) (A) (A)
 Beta  Orbitals:
       Occupied  (A) (A) (A) (A) (A) (A) (A) (A) (A) (A) (A) (A)
                 (A) (A) (A) (A) (A) (A) (A) (A) (A) (A) (A) (A)
                 (A) (A) (A) (A) (A) (A) (A) (A) (A) (A) (A) (A)
                 (A) (A) (A) (A) (A) (A) (A) (A) (A) (A) (A) (A)
                 (A) (A) (A) (A) (A) (A) (A) (A) (A) (A) (A) (A)
                 (A) (A) (A) (A) (A) (A) (A) (A) (A) (A) (A) (A)
                 (A) (A)
       Virtual   (A) (A) (A) (A) (A) (A) (A) (A) (A) (A) (A) (A)
                 (A) (A) (A) (A) (A) (A) (A) (A) (A) (A) (A) (A)
                 (A) (A) (A) (A) (A) (A) (A) (A) (A) (A) (A) (A)
                 (A) (A) (A) (A) (A) (A) (A) (A) (A) (A) (A) (A)
                 (A) (A) (A) (A) (A) (A) (A) (A) (A) (A) (A) (A)
                 (A) (A) (A) (A) (A) (A) (A) (A) (A) (A) (A) (A)
                 (A) (A) (A) (A) (A) (A) (A) (A) (A) (A) (A) (A)
                 (A) (A) (A) (A) (A) (A) (A) (A) (A) (A) (A) (A)
                 (A) (A) (A) (A) (A) (A) (A) (A) (A) (A) (A) (A)
                 (A) (A) (A) (A) (A) (A) (A) (A) (A) (A) (A) (A)
                 (A) (A) (A) (A) (A) (A) (A) (A) (A) (A) (A) (A)
                 (A) (A) (A) (A) (A) (A) (A) (A) (A) (A) (A) (A)
                 (A) (A) (A) (A) (A) (A) (A) (A) (A) (A) (A) (A)
                 (A) (A) (A) (A) (A) (A) (A) (A) (A) (A) (A) (A)
                 (A) (A) (A) (A) (A) (A) (A) (A) (A) (A) (A) (A)
                 (A) (A) (A) (A) (A) (A) (A) (A) (A) (A) (A) (A)
                 (A) (A) (A) (A) (A) (A) (A) (A) (A) (A) (A) (A)
                 (A) (A) (A) (A) (A) (A) (A) (A) (A) (A) (A) (A)
                 (A) (A) (A) (A) (A) (A) (A) (A) (A) (A) (A) (A)
                 (A) (A) (A) (A) (A) (A) (A) (A) (A) (A) (A) (A)
                 (A) (A) (A) (A) (A) (A) (A) (A) (A) (A) (A) (A)
                 (A) (A) (A) (A) (A) (A) (A) (A) (A) (A) (A) (A)
                 (A) (A) (A) (A) (A) (A) (A) (A) (A) (A) (A) (A)
                 (A) (A) (A) (A) (A) (A) (A) (A) (A) (A) (A) (A)
                 (A) (A) (A) (A) (A) (A) (A) (A) (A) (A) (A) (A)
                 (A) (A) (A) (A) (A) (A) (A) (A) (A) (A) (A) (A)
                 (A) (A) (A) (A) (A) (A) (A) (A) (A) (A) (A) (A)
                 (A) (A) (A) (A) (A) (A) (A) (A) (A) (A) (A) (A)
                 (A) (A) (A) (A) (A) (A) (A) (A) (A) (A) (A) (A)
                 (A) (A) (A) (A) (A) (A) (A) (A) (A) (A) (A) (A)
                 (A) (A) (A) (A) (A) (A) (A) (A) (A) (A) (A) (A)
                 (A) (A) (A) (A) (A) (A) (A) (A) (A) (A) (A) (A)
                 (A) (A) (A) (A) (A) (A) (A) (A) (A) (A) (A) (A)
                 (A) (A) (A) (A) (A) (A) (A) (A) (A) (A) (A) (A)
                 (A) (A) (A) (A) (A) (A) (A) (A) (A) (A) (A) (A)
                 (A) (A) (A) (A) (A) (A) (A) (A) (A) (A) (A) (A)
                 (A) (A) (A) (A) (A) (A) (A) (A) (A) (A) (A) (A)
                 (A) (A) (A) (A) (A) (A) (A) (A) (A) (A) (A) (A)
                 (A) (A) (A) (A) (A) (A) (A) (A) (A) (A) (A) (A)
                 (A) (A) (A) (A) (A) (A) (A) (A) (A) (A) (A) (A)
                 (A) (A) (A) (A) (A) (A) (A) (A) (A) (A) (A) (A)
                 (A) (A) (A) (A) (A) (A) (A) (A) (A) (A) (A) (A)
                 (A) (A) (A) (A) (A) (A) (A) (A) (A) (A) (A) (A)
                 (A) (A) (A) (A) (A) (A) (A) (A) (A) (A) (A) (A)
                 (A) (A) (A) (A) (A) (A) (A) (A) (A) (A) (A) (A)
                 (A) (A) (A) (A) (A) (A) (A) (A) (A) (A) (A) (A)
                 (A) (A) (A) (A) (A) (A) (A) (A) (A) (A) (A) (A)
                 (A) (A) (A) (A) (A) (A) (A) (A) (A) (A) (A) (A)
                 (A) (A) (A) (A) (A) (A) (A) (A) (A) (A) (A) (A)
                 (A) (A) (A) (A) (A) (A) (A) (A) (A) (A) (A) (A)
                 (A) (A) (A) (A) (A) (A) (A) (A) (A) (A) (A) (A)
                 (A) (A) (A) (A) (A) (A) (A) (A) (A) (A) (A) (A)
                 (A) (A) (A) (A) (A) (A) (A) (A) (A) (A) (A)
 The electronic state is 2-A.
 Alpha  occ. eigenvalues --  -90.10456 -19.63953 -19.63649 -14.82081 -14.75478
 Alpha  occ. eigenvalues --  -10.64869 -10.59050 -10.58256 -10.58121 -10.57925
 Alpha  occ. eigenvalues --  -10.57250 -10.55958 -10.55527 -10.55181 -10.55097
 Alpha  occ. eigenvalues --  -10.54749 -10.54125 -10.53401 -10.52403  -8.43595
 Alpha  occ. eigenvalues --   -6.35753  -6.35634  -6.35614  -1.24099  -1.15174
 Alpha  occ. eigenvalues --   -1.13683  -1.02101  -0.96407  -0.94186  -0.89910
 Alpha  occ. eigenvalues --   -0.86072  -0.85288  -0.83492  -0.82165  -0.78161
 Alpha  occ. eigenvalues --   -0.74972  -0.70284  -0.69057  -0.67848  -0.66642
 Alpha  occ. eigenvalues --   -0.66270  -0.60906  -0.59680  -0.59477  -0.58389
 Alpha  occ. eigenvalues --   -0.57147  -0.55436  -0.54041  -0.53092  -0.52036
 Alpha  occ. eigenvalues --   -0.51741  -0.51135  -0.50964  -0.50550  -0.48852
 Alpha  occ. eigenvalues --   -0.48184  -0.47354  -0.46309  -0.45968  -0.43740
 Alpha  occ. eigenvalues --   -0.43502  -0.43124  -0.42895  -0.42055  -0.41219
 Alpha  occ. eigenvalues --   -0.40537  -0.40356  -0.39537  -0.38986  -0.38379
 Alpha  occ. eigenvalues --   -0.37703  -0.36237  -0.31840  -0.29767  -0.22705
 Alpha virt. eigenvalues --   -0.00430   0.03060   0.04510   0.06019   0.07222
 Alpha virt. eigenvalues --    0.07773   0.08276   0.08912   0.09786   0.10400
 Alpha virt. eigenvalues --    0.11016   0.11807   0.11983   0.12533   0.13146
 Alpha virt. eigenvalues --    0.13224   0.13712   0.14051   0.14557   0.14743
 Alpha virt. eigenvalues --    0.15395   0.15843   0.15930   0.16690   0.17265
 Alpha virt. eigenvalues --    0.18003   0.18195   0.19209   0.19905   0.20343
 Alpha virt. eigenvalues --    0.21107   0.21267   0.21560   0.22400   0.22811
 Alpha virt. eigenvalues --    0.23104   0.23870   0.24289   0.25036   0.25498
 Alpha virt. eigenvalues --    0.25943   0.26128   0.27304   0.27455   0.28133
 Alpha virt. eigenvalues --    0.29005   0.29809   0.29947   0.30833   0.31158
 Alpha virt. eigenvalues --    0.31496   0.32043   0.32860   0.33631   0.34303
 Alpha virt. eigenvalues --    0.34600   0.35633   0.35973   0.36403   0.36843
 Alpha virt. eigenvalues --    0.37318   0.37915   0.38317   0.39403   0.40318
 Alpha virt. eigenvalues --    0.40556   0.40791   0.41307   0.41680   0.42183
 Alpha virt. eigenvalues --    0.42800   0.42990   0.43485   0.44096   0.44241
 Alpha virt. eigenvalues --    0.44980   0.45114   0.45581   0.45813   0.46068
 Alpha virt. eigenvalues --    0.46633   0.46932   0.47954   0.48340   0.48428
 Alpha virt. eigenvalues --    0.48967   0.49488   0.49877   0.50188   0.50726
 Alpha virt. eigenvalues --    0.51153   0.51474   0.51825   0.51980   0.52703
 Alpha virt. eigenvalues --    0.53278   0.53524   0.54235   0.54362   0.54576
 Alpha virt. eigenvalues --    0.55731   0.56196   0.56554   0.57023   0.57665
 Alpha virt. eigenvalues --    0.58125   0.59278   0.59848   0.60700   0.61124
 Alpha virt. eigenvalues --    0.62217   0.63052   0.63351   0.65022   0.65410
 Alpha virt. eigenvalues --    0.66276   0.66847   0.67313   0.68050   0.68856
 Alpha virt. eigenvalues --    0.69618   0.70560   0.70860   0.71566   0.72443
 Alpha virt. eigenvalues --    0.72892   0.73769   0.74213   0.74668   0.76440
 Alpha virt. eigenvalues --    0.76709   0.77113   0.77741   0.78559   0.79455
 Alpha virt. eigenvalues --    0.81029   0.81228   0.81831   0.82811   0.83893
 Alpha virt. eigenvalues --    0.84677   0.85928   0.87157   0.88165   0.88912
 Alpha virt. eigenvalues --    0.89412   0.90232   0.90433   0.90763   0.91806
 Alpha virt. eigenvalues --    0.92987   0.93254   0.93864   0.94596   0.95219
 Alpha virt. eigenvalues --    0.95605   0.97044   0.97990   0.98583   0.99765
 Alpha virt. eigenvalues --    1.00587   1.01130   1.02001   1.02957   1.04163
 Alpha virt. eigenvalues --    1.05038   1.05485   1.06148   1.06719   1.08168
 Alpha virt. eigenvalues --    1.09120   1.10284   1.11280   1.11805   1.12812
 Alpha virt. eigenvalues --    1.13669   1.13920   1.14303   1.15803   1.16285
 Alpha virt. eigenvalues --    1.17164   1.17527   1.18371   1.19013   1.19636
 Alpha virt. eigenvalues --    1.21860   1.22923   1.23382   1.24539   1.25297
 Alpha virt. eigenvalues --    1.25626   1.25883   1.26988   1.27655   1.29776
 Alpha virt. eigenvalues --    1.30286   1.30426   1.31585   1.33471   1.34465
 Alpha virt. eigenvalues --    1.35333   1.35783   1.37372   1.40119   1.40539
 Alpha virt. eigenvalues --    1.40949   1.42581   1.44425   1.44687   1.45445
 Alpha virt. eigenvalues --    1.46632   1.47783   1.47911   1.48974   1.51030
 Alpha virt. eigenvalues --    1.51195   1.52371   1.53075   1.54050   1.54718
 Alpha virt. eigenvalues --    1.55384   1.55625   1.56630   1.57482   1.58245
 Alpha virt. eigenvalues --    1.58519   1.59024   1.59847   1.60322   1.60569
 Alpha virt. eigenvalues --    1.61097   1.62595   1.63007   1.63421   1.64019
 Alpha virt. eigenvalues --    1.64830   1.65425   1.65985   1.66491   1.67891
 Alpha virt. eigenvalues --    1.68490   1.68859   1.69433   1.70060   1.70286
 Alpha virt. eigenvalues --    1.70483   1.71146   1.73621   1.74138   1.74515
 Alpha virt. eigenvalues --    1.75649   1.75969   1.77698   1.78344   1.78543
 Alpha virt. eigenvalues --    1.79721   1.80270   1.80640   1.81667   1.82632
 Alpha virt. eigenvalues --    1.83505   1.85344   1.85590   1.85912   1.87258
 Alpha virt. eigenvalues --    1.87689   1.88615   1.89262   1.90326   1.91520
 Alpha virt. eigenvalues --    1.92714   1.93222   1.95096   1.95979   1.97191
 Alpha virt. eigenvalues --    1.97928   1.99354   2.00118   2.00416   2.02583
 Alpha virt. eigenvalues --    2.03085   2.03533   2.04275   2.05510   2.07059
 Alpha virt. eigenvalues --    2.08239   2.08738   2.10434   2.11573   2.12382
 Alpha virt. eigenvalues --    2.12574   2.14084   2.14601   2.16501   2.16879
 Alpha virt. eigenvalues --    2.17583   2.17834   2.18850   2.20659   2.20786
 Alpha virt. eigenvalues --    2.22117   2.22889   2.23234   2.24229   2.24980
 Alpha virt. eigenvalues --    2.25387   2.27210   2.27813   2.30015   2.30263
 Alpha virt. eigenvalues --    2.31964   2.33241   2.33893   2.34081   2.35928
 Alpha virt. eigenvalues --    2.36307   2.37122   2.37351   2.37988   2.39178
 Alpha virt. eigenvalues --    2.39777   2.40571   2.41198   2.41415   2.41972
 Alpha virt. eigenvalues --    2.43665   2.44402   2.44782   2.45864   2.46576
 Alpha virt. eigenvalues --    2.46833   2.47429   2.49557   2.49925   2.51566
 Alpha virt. eigenvalues --    2.52163   2.53807   2.54901   2.55807   2.56415
 Alpha virt. eigenvalues --    2.56464   2.57485   2.58276   2.59224   2.59248
 Alpha virt. eigenvalues --    2.60084   2.60546   2.61188   2.61976   2.62030
 Alpha virt. eigenvalues --    2.63458   2.63553   2.64821   2.65749   2.65868
 Alpha virt. eigenvalues --    2.66279   2.67276   2.67882   2.68056   2.68976
 Alpha virt. eigenvalues --    2.69439   2.70067   2.70794   2.71129   2.72367
 Alpha virt. eigenvalues --    2.73122   2.73594   2.73676   2.74134   2.75923
 Alpha virt. eigenvalues --    2.76779   2.77618   2.78159   2.78891   2.80175
 Alpha virt. eigenvalues --    2.80602   2.81625   2.82336   2.83447   2.84303
 Alpha virt. eigenvalues --    2.85324   2.85833   2.87402   2.88658   2.89427
 Alpha virt. eigenvalues --    2.90607   2.92033   2.93085   2.93796   2.95095
 Alpha virt. eigenvalues --    2.95932   2.97023   2.97988   2.99659   3.00824
 Alpha virt. eigenvalues --    3.01284   3.02882   3.03644   3.04609   3.05532
 Alpha virt. eigenvalues --    3.07073   3.07248   3.08455   3.09698   3.10285
 Alpha virt. eigenvalues --    3.10604   3.11729   3.11926   3.12614   3.13362
 Alpha virt. eigenvalues --    3.14050   3.14367   3.14461   3.16001   3.16614
 Alpha virt. eigenvalues --    3.17259   3.18098   3.18433   3.19136   3.19427
 Alpha virt. eigenvalues --    3.20443   3.21207   3.22005   3.23104   3.23331
 Alpha virt. eigenvalues --    3.24098   3.24824   3.25058   3.26110   3.26988
 Alpha virt. eigenvalues --    3.27646   3.27998   3.28376   3.30024   3.30716
 Alpha virt. eigenvalues --    3.31165   3.32149   3.32640   3.33423   3.34848
 Alpha virt. eigenvalues --    3.35200   3.35447   3.36493   3.37513   3.38125
 Alpha virt. eigenvalues --    3.38279   3.38801   3.39262   3.39852   3.40897
 Alpha virt. eigenvalues --    3.41821   3.42314   3.43073   3.44206   3.44664
 Alpha virt. eigenvalues --    3.45887   3.46165   3.47691   3.47709   3.48368
 Alpha virt. eigenvalues --    3.49228   3.50848   3.51960   3.52166   3.53485
 Alpha virt. eigenvalues --    3.54555   3.55166   3.55469   3.56427   3.56667
 Alpha virt. eigenvalues --    3.57108   3.58621   3.58988   3.59477   3.61256
 Alpha virt. eigenvalues --    3.61920   3.64615   3.64984   3.66200   3.67460
 Alpha virt. eigenvalues --    3.68622   3.70378   3.71163   3.74538   3.74605
 Alpha virt. eigenvalues --    3.75678   3.77184   3.78214   3.79364   3.81100
 Alpha virt. eigenvalues --    3.81704   3.83613   3.85619   3.86238   3.87881
 Alpha virt. eigenvalues --    3.89023   3.90823   3.91582   3.93178   3.94145
 Alpha virt. eigenvalues --    3.94574   3.95927   3.97225   3.98919   4.00308
 Alpha virt. eigenvalues --    4.01353   4.02834   4.04143   4.06088   4.06664
 Alpha virt. eigenvalues --    4.07675   4.09196   4.10834   4.12207   4.12376
 Alpha virt. eigenvalues --    4.13588   4.15295   4.15635   4.16129   4.16640
 Alpha virt. eigenvalues --    4.18001   4.18938   4.19738   4.23091   4.25271
 Alpha virt. eigenvalues --    4.26919   4.27672   4.29379   4.32781   4.34366
 Alpha virt. eigenvalues --    4.36563   4.37241   4.38146   4.38804   4.40102
 Alpha virt. eigenvalues --    4.41229   4.45262   4.46880   4.49070   4.51041
 Alpha virt. eigenvalues --    4.52209   4.53239   4.56106   4.58879   4.60468
 Alpha virt. eigenvalues --    4.61079   4.61733   4.63537   4.66463   4.68532
 Alpha virt. eigenvalues --    4.70875   4.72598   4.76697   4.77554   4.79873
 Alpha virt. eigenvalues --    4.81230   4.83769   4.85303   4.85645   4.87136
 Alpha virt. eigenvalues --    4.92838   4.96372   4.99746   5.01482   5.02054
 Alpha virt. eigenvalues --    5.06216   5.07627   5.10273   5.12349   5.15517
 Alpha virt. eigenvalues --    5.15773   5.16075   5.16817   5.17389   5.17622
 Alpha virt. eigenvalues --    5.19818   5.20608   5.22791   5.23360   5.24438
 Alpha virt. eigenvalues --    5.27199   5.29588   5.33017   5.35041   5.38638
 Alpha virt. eigenvalues --    5.41885   5.45086   5.46679   5.51774   5.53695
 Alpha virt. eigenvalues --    5.55104   5.58795   5.60084   5.65183   5.67122
 Alpha virt. eigenvalues --    5.71301   5.73489   5.75575   5.83268   5.92903
 Alpha virt. eigenvalues --    6.08576   6.24117   6.33137   6.34407   6.40984
 Alpha virt. eigenvalues --    6.45874   6.68061   6.76049   6.77833   6.79675
 Alpha virt. eigenvalues --    6.87153   6.92949   9.50705   9.61333   9.72495
 Alpha virt. eigenvalues --   21.94880  22.40981  22.45118  22.50311  22.59552
 Alpha virt. eigenvalues --   22.60857  22.63182  22.66018  22.69638  22.73776
 Alpha virt. eigenvalues --   22.75391  22.99011  23.02114  23.39476  23.61321
 Alpha virt. eigenvalues --   32.67071  33.16933  43.91218  44.07385
  Beta  occ. eigenvalues --  -90.10411 -19.63941 -19.63637 -14.81941 -14.75184
  Beta  occ. eigenvalues --  -10.65024 -10.59016 -10.58225 -10.58127 -10.57964
  Beta  occ. eigenvalues --  -10.56750 -10.55990 -10.55544 -10.55132 -10.55059
  Beta  occ. eigenvalues --  -10.54759 -10.54155 -10.53400 -10.52404  -8.43572
  Beta  occ. eigenvalues --   -6.35649  -6.35619  -6.35601  -1.24037  -1.14794
  Beta  occ. eigenvalues --   -1.13642  -1.01475  -0.96209  -0.93604  -0.89680
  Beta  occ. eigenvalues --   -0.85957  -0.85157  -0.82873  -0.81960  -0.77923
  Beta  occ. eigenvalues --   -0.74706  -0.70096  -0.68857  -0.67656  -0.66200
  Beta  occ. eigenvalues --   -0.65427  -0.60785  -0.59368  -0.59202  -0.58162
  Beta  occ. eigenvalues --   -0.56719  -0.55320  -0.53733  -0.52714  -0.51934
  Beta  occ. eigenvalues --   -0.51506  -0.50982  -0.50544  -0.49918  -0.48417
  Beta  occ. eigenvalues --   -0.48065  -0.46994  -0.46035  -0.45464  -0.43613
  Beta  occ. eigenvalues --   -0.43276  -0.42769  -0.42725  -0.41890  -0.40854
  Beta  occ. eigenvalues --   -0.40300  -0.40101  -0.39322  -0.38779  -0.37885
  Beta  occ. eigenvalues --   -0.36770  -0.35593  -0.30209  -0.28609
  Beta virt. eigenvalues --   -0.07515   0.01831   0.03707   0.05449   0.06213
  Beta virt. eigenvalues --    0.07308   0.07763   0.08318   0.08850   0.09751
  Beta virt. eigenvalues --    0.10357   0.11171   0.11934   0.12042   0.12547
  Beta virt. eigenvalues --    0.13136   0.13280   0.13730   0.14039   0.14603
  Beta virt. eigenvalues --    0.14731   0.15406   0.15834   0.15933   0.16762
  Beta virt. eigenvalues --    0.17292   0.17993   0.18199   0.19299   0.19919
  Beta virt. eigenvalues --    0.20375   0.21182   0.21392   0.21608   0.22548
  Beta virt. eigenvalues --    0.22853   0.23230   0.23915   0.24408   0.25205
  Beta virt. eigenvalues --    0.25559   0.25964   0.26138   0.27395   0.27502
  Beta virt. eigenvalues --    0.28243   0.29053   0.29822   0.29967   0.31044
  Beta virt. eigenvalues --    0.31368   0.31514   0.32167   0.33140   0.33724
  Beta virt. eigenvalues --    0.34376   0.34666   0.35758   0.36090   0.36469
  Beta virt. eigenvalues --    0.36842   0.37334   0.38036   0.38404   0.39531
  Beta virt. eigenvalues --    0.40428   0.40611   0.40784   0.41338   0.41728
  Beta virt. eigenvalues --    0.42303   0.42839   0.43020   0.43505   0.44161
  Beta virt. eigenvalues --    0.44286   0.44977   0.45143   0.45652   0.45799
  Beta virt. eigenvalues --    0.46205   0.46660   0.47036   0.47985   0.48446
  Beta virt. eigenvalues --    0.48495   0.49037   0.49616   0.50040   0.50204
  Beta virt. eigenvalues --    0.50810   0.51284   0.51739   0.51945   0.52085
  Beta virt. eigenvalues --    0.52727   0.53356   0.53867   0.54284   0.54511
  Beta virt. eigenvalues --    0.54688   0.55707   0.56320   0.56582   0.57161
  Beta virt. eigenvalues --    0.57703   0.58241   0.59373   0.59888   0.60897
  Beta virt. eigenvalues --    0.61218   0.62249   0.63204   0.63490   0.65178
  Beta virt. eigenvalues --    0.65394   0.66309   0.66811   0.67432   0.68027
  Beta virt. eigenvalues --    0.68912   0.69758   0.70596   0.71078   0.71676
  Beta virt. eigenvalues --    0.72539   0.72960   0.73850   0.74300   0.74782
  Beta virt. eigenvalues --    0.76485   0.76709   0.77259   0.77829   0.78741
  Beta virt. eigenvalues --    0.79631   0.81181   0.81490   0.82028   0.82905
  Beta virt. eigenvalues --    0.83968   0.84900   0.86021   0.87267   0.88289
  Beta virt. eigenvalues --    0.89016   0.89488   0.90293   0.90569   0.90871
  Beta virt. eigenvalues --    0.91852   0.93040   0.93434   0.93977   0.94660
  Beta virt. eigenvalues --    0.95247   0.95779   0.97139   0.98170   0.98730
  Beta virt. eigenvalues --    0.99847   1.00659   1.01157   1.02100   1.03090
  Beta virt. eigenvalues --    1.04240   1.05232   1.05568   1.06174   1.06855
  Beta virt. eigenvalues --    1.08265   1.09124   1.10360   1.11326   1.12017
  Beta virt. eigenvalues --    1.13048   1.13887   1.14009   1.14459   1.15948
  Beta virt. eigenvalues --    1.16503   1.17355   1.17709   1.18427   1.19113
  Beta virt. eigenvalues --    1.19840   1.22088   1.23044   1.23493   1.24681
  Beta virt. eigenvalues --    1.25496   1.25846   1.26074   1.27162   1.28068
  Beta virt. eigenvalues --    1.29990   1.30441   1.30661   1.31841   1.33701
  Beta virt. eigenvalues --    1.34687   1.35557   1.36089   1.37919   1.40291
  Beta virt. eigenvalues --    1.40576   1.41236   1.42663   1.44491   1.44832
  Beta virt. eigenvalues --    1.45577   1.46735   1.47879   1.48020   1.49225
  Beta virt. eigenvalues --    1.51282   1.51361   1.52613   1.53326   1.54221
  Beta virt. eigenvalues --    1.55083   1.55463   1.55712   1.56786   1.57572
  Beta virt. eigenvalues --    1.58339   1.58749   1.59115   1.60184   1.60393
  Beta virt. eigenvalues --    1.60845   1.61271   1.62664   1.63298   1.63431
  Beta virt. eigenvalues --    1.64061   1.64944   1.65580   1.66117   1.66511
  Beta virt. eigenvalues --    1.68101   1.68714   1.68942   1.69684   1.70236
  Beta virt. eigenvalues --    1.70396   1.70655   1.71256   1.73840   1.74192
  Beta virt. eigenvalues --    1.74738   1.75905   1.76139   1.77829   1.78553
  Beta virt. eigenvalues --    1.78748   1.79851   1.80326   1.80758   1.81875
  Beta virt. eigenvalues --    1.82724   1.83618   1.85448   1.85731   1.86182
  Beta virt. eigenvalues --    1.87474   1.87877   1.88834   1.89432   1.90741
  Beta virt. eigenvalues --    1.91659   1.92842   1.93388   1.95415   1.96130
  Beta virt. eigenvalues --    1.97323   1.98328   1.99581   2.00255   2.00718
  Beta virt. eigenvalues --    2.02789   2.03335   2.03663   2.04555   2.05564
  Beta virt. eigenvalues --    2.07223   2.08365   2.08936   2.10570   2.11836
  Beta virt. eigenvalues --    2.12543   2.12810   2.14455   2.15025   2.16729
  Beta virt. eigenvalues --    2.17113   2.17812   2.18089   2.19224   2.20985
  Beta virt. eigenvalues --    2.21188   2.22259   2.23112   2.23414   2.24355
  Beta virt. eigenvalues --    2.25225   2.25597   2.27452   2.28182   2.30246
  Beta virt. eigenvalues --    2.30587   2.32060   2.33487   2.34214   2.34243
  Beta virt. eigenvalues --    2.36143   2.36500   2.37263   2.37737   2.38210
  Beta virt. eigenvalues --    2.39273   2.39896   2.40693   2.41294   2.41680
  Beta virt. eigenvalues --    2.42159   2.43941   2.44577   2.44909   2.46032
  Beta virt. eigenvalues --    2.46828   2.47076   2.47730   2.49729   2.50227
  Beta virt. eigenvalues --    2.51824   2.52431   2.54047   2.55128   2.56168
  Beta virt. eigenvalues --    2.56635   2.56888   2.57674   2.58469   2.59351
  Beta virt. eigenvalues --    2.59444   2.60374   2.60791   2.61428   2.62138
  Beta virt. eigenvalues --    2.62242   2.63659   2.64052   2.65271   2.66000
  Beta virt. eigenvalues --    2.66072   2.66698   2.67433   2.68108   2.68311
  Beta virt. eigenvalues --    2.69321   2.69787   2.70404   2.71063   2.71517
  Beta virt. eigenvalues --    2.72571   2.73374   2.73840   2.74008   2.74442
  Beta virt. eigenvalues --    2.76192   2.77283   2.77835   2.78574   2.79093
  Beta virt. eigenvalues --    2.80401   2.80891   2.81909   2.82585   2.83653
  Beta virt. eigenvalues --    2.84655   2.85742   2.86173   2.87549   2.89025
  Beta virt. eigenvalues --    2.90086   2.91053   2.92354   2.93371   2.94185
  Beta virt. eigenvalues --    2.95603   2.96515   2.97450   2.98210   3.00362
  Beta virt. eigenvalues --    3.01218   3.01420   3.03245   3.03944   3.05046
  Beta virt. eigenvalues --    3.05854   3.07489   3.07708   3.09096   3.10226
  Beta virt. eigenvalues --    3.10469   3.10917   3.12064   3.12312   3.12970
  Beta virt. eigenvalues --    3.13654   3.14342   3.14601   3.14674   3.16718
  Beta virt. eigenvalues --    3.17323   3.17941   3.18288   3.18702   3.19633
  Beta virt. eigenvalues --    3.19981   3.20802   3.21599   3.22426   3.23316
  Beta virt. eigenvalues --    3.23837   3.24744   3.25177   3.25560   3.26489
  Beta virt. eigenvalues --    3.27386   3.27919   3.28271   3.28610   3.30510
  Beta virt. eigenvalues --    3.30983   3.31437   3.32341   3.33191   3.34116
  Beta virt. eigenvalues --    3.35358   3.35645   3.36548   3.36804   3.37831
  Beta virt. eigenvalues --    3.38335   3.38451   3.39069   3.39418   3.40081
  Beta virt. eigenvalues --    3.41196   3.42003   3.42619   3.43320   3.44541
  Beta virt. eigenvalues --    3.44970   3.46238   3.46868   3.47948   3.48149
  Beta virt. eigenvalues --    3.48731   3.49580   3.51554   3.52169   3.52682
  Beta virt. eigenvalues --    3.54054   3.54967   3.55292   3.56047   3.56672
  Beta virt. eigenvalues --    3.57130   3.57454   3.59228   3.59805   3.60029
  Beta virt. eigenvalues --    3.61682   3.62176   3.65467   3.65578   3.66675
  Beta virt. eigenvalues --    3.67810   3.68953   3.71055   3.71980   3.74825
  Beta virt. eigenvalues --    3.75599   3.76031   3.77797   3.78632   3.79911
  Beta virt. eigenvalues --    3.81248   3.82449   3.84449   3.86387   3.87095
  Beta virt. eigenvalues --    3.88248   3.89791   3.91054   3.92032   3.93783
  Beta virt. eigenvalues --    3.94455   3.95132   3.96343   3.98316   3.99303
  Beta virt. eigenvalues --    4.00921   4.02008   4.03501   4.04351   4.06615
  Beta virt. eigenvalues --    4.07083   4.08070   4.09732   4.11415   4.12628
  Beta virt. eigenvalues --    4.13234   4.14190   4.15957   4.16105   4.16684
  Beta virt. eigenvalues --    4.17298   4.18395   4.19318   4.20187   4.23882
  Beta virt. eigenvalues --    4.25918   4.27500   4.28214   4.30297   4.33212
  Beta virt. eigenvalues --    4.34892   4.37076   4.37826   4.38692   4.39293
  Beta virt. eigenvalues --    4.40481   4.41482   4.45524   4.47541   4.49835
  Beta virt. eigenvalues --    4.51785   4.52586   4.53917   4.56812   4.59522
  Beta virt. eigenvalues --    4.61659   4.62067   4.62881   4.64097   4.67006
  Beta virt. eigenvalues --    4.69144   4.72117   4.73095   4.78025   4.78404
  Beta virt. eigenvalues --    4.80442   4.81954   4.84424   4.85968   4.86652
  Beta virt. eigenvalues --    4.88261   4.93295   4.97759   5.00368   5.02189
  Beta virt. eigenvalues --    5.05206   5.07170   5.10418   5.11223   5.12989
  Beta virt. eigenvalues --    5.15665   5.16092   5.16649   5.17054   5.17482
  Beta virt. eigenvalues --    5.18312   5.19877   5.21030   5.23389   5.24236
  Beta virt. eigenvalues --    5.24705   5.27413   5.29625   5.33101   5.35700
  Beta virt. eigenvalues --    5.39125   5.42269   5.45371   5.47441   5.51945
  Beta virt. eigenvalues --    5.53903   5.55230   5.58873   5.60103   5.65271
  Beta virt. eigenvalues --    5.67357   5.71269   5.73517   5.75566   5.83131
  Beta virt. eigenvalues --    5.92875   6.08510   6.23937   6.33180   6.34447
  Beta virt. eigenvalues --    6.41030   6.45913   6.68116   6.76056   6.77884
  Beta virt. eigenvalues --    6.79691   6.87186   6.92975   9.50827   9.61350
  Beta virt. eigenvalues --    9.72546  21.94870  22.41028  22.45128  22.50373
  Beta virt. eigenvalues --   22.59555  22.60890  22.63459  22.66147  22.69758
  Beta virt. eigenvalues --   22.74055  22.76067  22.99035  23.02184  23.39252
  Beta virt. eigenvalues --   23.61382  32.67185  33.16919  43.91217  44.07384
          Condensed to atoms (all electrons):
               1          2          3          4          5          6
     1  C    5.219125   0.277540   0.126136  -0.157193   0.021486   0.456640
     2  C    0.277540   5.084195   0.180061   0.095295  -0.105328   0.012730
     3  C    0.126136   0.180061   5.593427   0.196751   0.004077  -0.135671
     4  C   -0.157193   0.095295   0.196751   5.332343   0.420735   0.028577
     5  C    0.021486  -0.105328   0.004077   0.420735   5.014178   0.436475
     6  C    0.456640   0.012730  -0.135671   0.028577   0.436475   5.001736
     7  H    0.424448  -0.061101   0.022922  -0.005504   0.008445  -0.038889
     8  H    0.000589   0.001333  -0.014653   0.390225  -0.010985   0.001310
     9  H    0.005306  -0.001063   0.009720  -0.040380   0.421386  -0.037224
    10  H   -0.044616   0.011616  -0.002467   0.008291  -0.043385   0.427659
    11  N    0.022046  -0.090907   0.379390  -0.087060   0.007588  -0.001687
    12  N   -0.056963   0.529153  -0.125939   0.030368  -0.004303   0.008926
    13  C   -0.032873  -0.101502  -0.229124   0.031534  -0.008134   0.004295
    14  C   -0.000099   0.012886  -0.051637  -0.008961  -0.002703   0.000138
    15  H   -0.000206  -0.001022   0.001877   0.000835  -0.001160   0.000073
    16  H    0.000202   0.001896  -0.014205  -0.003582   0.000981  -0.000188
    17  H    0.000027  -0.000688   0.007784   0.000753   0.000061  -0.000003
    18  S    0.000029   0.002319  -0.000732  -0.000464   0.000031  -0.000031
    19  O    0.000036   0.000967  -0.000173   0.000087  -0.000008  -0.000012
    20  O    0.000052   0.000568  -0.000876   0.000042   0.000005  -0.000004
    21  C   -0.001094  -0.007627   0.000863   0.000295  -0.000047   0.000063
    22  C    0.000517   0.004104  -0.001231  -0.000215   0.000030  -0.000018
    23  H    0.000220   0.001811   0.000036  -0.000078   0.000012  -0.000026
    24  H    0.000006   0.000053  -0.000013  -0.000001   0.000000   0.000000
    25  C   -0.001353  -0.010323   0.048886   0.005258  -0.000741  -0.000179
    26  H   -0.000006  -0.000074   0.000061   0.000001  -0.000000   0.000000
    27  H   -0.000024  -0.000082   0.000144   0.000008  -0.000001   0.000000
    28  C    0.001064   0.005572  -0.028716  -0.002364   0.000429   0.000000
    29  H    0.001777   0.001933   0.001115  -0.000978   0.000181  -0.000189
    30  H    0.000051   0.000603  -0.000901  -0.000128   0.000023  -0.000008
    31  H    0.000001  -0.000213   0.000354   0.000008  -0.000003   0.000001
    32  C   -0.000147  -0.005565   0.007987   0.000416  -0.000114  -0.000032
    33  C    0.000042   0.000335  -0.000621  -0.000273   0.000002   0.000007
    34  H   -0.001052  -0.009453  -0.000172  -0.003633   0.000493  -0.000069
    35  H    0.000333   0.000438   0.000158  -0.000357   0.000103  -0.000086
    36  H   -0.000009  -0.000007  -0.000028   0.000244  -0.000021   0.000003
    37  H    0.000007   0.000042   0.000172  -0.000047   0.000002  -0.000002
    38  H   -0.000000  -0.000016  -0.000002  -0.000004   0.000001  -0.000000
               7          8          9         10         11         12
     1  C    0.424448   0.000589   0.005306  -0.044616   0.022046  -0.056963
     2  C   -0.061101   0.001333  -0.001063   0.011616  -0.090907   0.529153
     3  C    0.022922  -0.014653   0.009720  -0.002467   0.379390  -0.125939
     4  C   -0.005504   0.390225  -0.040380   0.008291  -0.087060   0.030368
     5  C    0.008445  -0.010985   0.421386  -0.043385   0.007588  -0.004303
     6  C   -0.038889   0.001310  -0.037224   0.427659  -0.001687   0.008926
     7  H    0.485416   0.000036  -0.000132  -0.004921   0.000236   0.003289
     8  H    0.000036   0.445958  -0.003235  -0.000161  -0.001857  -0.000216
     9  H   -0.000132  -0.003235   0.479631  -0.003699  -0.000132  -0.000009
    10  H   -0.004921  -0.000161  -0.003699   0.485080   0.000003  -0.000113
    11  N    0.000236  -0.001857  -0.000132   0.000003   6.657523  -0.109728
    12  N    0.003289  -0.000216  -0.000009  -0.000113  -0.109728   6.823899
    13  C   -0.000942   0.000288   0.000037   0.000092   0.263930   0.325635
    14  C    0.000035   0.002187   0.000014  -0.000002   0.214935   0.002005
    15  H    0.000002  -0.000639  -0.000006   0.000001  -0.058034  -0.000113
    16  H    0.000001  -0.002423   0.000002  -0.000000  -0.021188  -0.000327
    17  H   -0.000000   0.000128  -0.000000  -0.000000  -0.028925   0.000257
    18  S    0.000009   0.000001  -0.000000  -0.000000  -0.019736  -0.018473
    19  O    0.000006   0.000002   0.000000   0.000000  -0.005101  -0.011610
    20  O    0.000001  -0.000002   0.000000   0.000000   0.000438   0.004494
    21  C   -0.000066   0.000001  -0.000000   0.000000   0.000327   0.001236
    22  C   -0.000017  -0.000005  -0.000000  -0.000000   0.006939   0.001923
    23  H    0.000093  -0.000000   0.000000  -0.000000   0.001041   0.007510
    24  H    0.000000  -0.000000  -0.000000  -0.000000  -0.000064   0.000285
    25  C   -0.000080   0.000085   0.000001   0.000004  -0.099986  -0.083892
    26  H   -0.000000   0.000000  -0.000000  -0.000000  -0.000229  -0.000387
    27  H    0.000000   0.000000   0.000000   0.000000  -0.000405  -0.000749
    28  C    0.000018  -0.000131  -0.000001  -0.000001   0.046272   0.005630
[...]
     6  C(13)             -0.00553      -6.21414      -2.21736      -2.07281
     7  H(1)              -0.00111      -4.94592      -1.76483      -1.64978
     8  H(1)               0.00009       0.41746       0.14896       0.13925
     9  H(1)              -0.00141      -6.30681      -2.25043      -2.10372
    10  H(1)              -0.00001      -0.02731      -0.00975      -0.00911
    11  N(14)              0.02159       6.97724       2.48965       2.32736
    12  N(14)              0.04979      16.08673       5.74015       5.36596
    13  C(13)             -0.06387     -71.80272     -25.62100     -23.95081
    14  C(13)             -0.00280      -3.15300      -1.12507      -1.05173
    15  H(1)               0.00202       9.01639       3.21727       3.00754
    16  H(1)               0.00208       9.28990       3.31487       3.09878
    17  H(1)               0.00007       0.32123       0.11462       0.10715
    18  S(33)              0.06680      22.94448       8.18716       7.65345
    19  O(17)             -0.00133       0.80341       0.28667       0.26799
    20  O(17)              0.00086      -0.52201      -0.18627      -0.17412
    21  C(13)              0.01614      18.15002       6.47638       6.05419
    22  C(13)             -0.01841     -20.69856      -7.38576      -6.90430
    23  H(1)              -0.00037      -1.64222      -0.58599      -0.54779
    24  H(1)              -0.00064      -2.87920      -1.02737      -0.96040
    25  C(13)              0.18610     209.20724      74.65034      69.78402
    26  H(1)               0.00009       0.40206       0.14347       0.13411
    27  H(1)               0.01245      55.63617      19.85237      18.55823
    28  C(13)             -0.01605     -18.04077      -6.43739      -6.01775
    29  H(1)              -0.00914     -40.85554     -14.57827     -13.62794
    30  H(1)               0.00845      37.77837      13.48026      12.60151
    31  H(1)               0.01617      72.29208      25.79561      24.11404
    32  C(13)              0.00084       0.94722       0.33799       0.31596
    33  C(13)             -0.00073      -0.82250      -0.29349      -0.27436
    34  H(1)              -0.00024      -1.05354      -0.37593      -0.35142
    35  H(1)              -0.00017      -0.74641      -0.26634      -0.24898
    36  H(1)              -0.00008      -0.36079      -0.12874      -0.12035
    37  H(1)               0.00005       0.20979       0.07486       0.06998
    38  H(1)               0.00009       0.41598       0.14843       0.13876
 --------------------------------------------------------
       Center         ----  Spin Dipole Couplings  ----
                      3XX-RR        3YY-RR        3ZZ-RR
 --------------------------------------------------------
     1   Atom       -0.032482      0.032461      0.000020
     2   Atom        0.026120     -0.021722     -0.004398
     3   Atom       -0.027115      0.031993     -0.004878
     4   Atom        0.010636     -0.009751     -0.000886
     5   Atom       -0.042192      0.042360     -0.000168
     6   Atom        0.002803     -0.002768     -0.000035
     7   Atom       -0.003249      0.000657      0.002592
     8   Atom        0.002023     -0.001506     -0.000516
     9   Atom        0.004767     -0.001930     -0.002838
    10   Atom        0.000167     -0.000510      0.000343
    11   Atom       -0.111274      0.094179      0.017095
    12   Atom       -0.262847      0.256210      0.006637
    13   Atom        0.039133     -0.054260      0.015127
    14   Atom       -0.002454     -0.001486      0.003941
    15   Atom       -0.001483     -0.000190      0.001674
    16   Atom       -0.001395     -0.001911      0.003306
    17   Atom       -0.001718     -0.002367      0.004085
    18   Atom        0.166973     -0.070425     -0.096548
    19   Atom        0.023259     -0.001100     -0.022159
    20   Atom        0.036981     -0.022441     -0.014539
    21   Atom       -0.011492      0.022215     -0.010723
    22   Atom        0.012427     -0.008845     -0.003581
    23   Atom       -0.000573      0.004133     -0.003560
    24   Atom        0.003746     -0.000327     -0.003419
    25   Atom       -0.236653      0.080717      0.155936
    26   Atom        0.011669     -0.006860     -0.004809
    27   Atom        0.005020     -0.006317      0.001297
    28   Atom       -0.012225      0.020774     -0.008549
    29   Atom       -0.000227     -0.025504      0.025732
    30   Atom       -0.006002      0.001404      0.004598
    31   Atom       -0.003375      0.009456     -0.006081
    32   Atom       -0.000319      0.003770     -0.003451
    33   Atom       -0.000228      0.001187     -0.000959
    34   Atom        0.003064      0.000730     -0.003793
    35   Atom        0.001229      0.002422     -0.003651
    36   Atom       -0.000120      0.001067     -0.000947
    37   Atom       -0.000901      0.001345     -0.000444
    38   Atom       -0.000901      0.002293     -0.001393
 --------------------------------------------------------
                        XY            XZ            YZ
 --------------------------------------------------------
     1   Atom        0.002248      0.001382     -0.045953
     2   Atom        0.004083     -0.004469      0.021790
     3   Atom        0.005038     -0.005393     -0.040358
     4   Atom       -0.001435     -0.001701      0.011359
     5   Atom       -0.000146     -0.002617     -0.062186
     6   Atom       -0.000286     -0.000204      0.004507
     7   Atom        0.001465      0.001115      0.003735
     8   Atom       -0.000594     -0.001698      0.000764
     9   Atom       -0.003372     -0.005023     -0.001221
    10   Atom        0.000927      0.000914      0.001456
    11   Atom        0.018441     -0.019293     -0.159002
    12   Atom        0.046229     -0.029760     -0.371306
    13   Atom       -0.034513      0.024885      0.085300
    14   Atom        0.000779     -0.001094      0.001224
    15   Atom       -0.000294     -0.001776      0.002642
    16   Atom        0.000210     -0.000899      0.000759
    17   Atom        0.000896      0.000734      0.000630
    18   Atom       -0.069649      0.017485     -0.009614
    19   Atom       -0.024835     -0.016147      0.013960
    20   Atom        0.010626     -0.000949      0.001923
    21   Atom       -0.004643     -0.002695     -0.017683
    22   Atom       -0.002044     -0.014886     -0.000767
    23   Atom       -0.002486     -0.001185      0.002914
    24   Atom       -0.003987      0.000013     -0.000923
    25   Atom        0.245595     -0.259448     -0.487164
    26   Atom        0.001041      0.001929     -0.000325
    27   Atom       -0.002353     -0.006807      0.001161
    28   Atom        0.001958     -0.001486     -0.004713
    29   Atom        0.021370      0.037185     -0.003403
    30   Atom        0.002455      0.001868      0.010204
    31   Atom        0.004033     -0.001613      0.002201
    32   Atom       -0.005528     -0.001486      0.001186
    33   Atom       -0.001024     -0.001123      0.000296
    34   Atom       -0.003917     -0.002810      0.001330
    35   Atom       -0.004574      0.000987     -0.001565
    36   Atom       -0.001130     -0.000409      0.000425
    37   Atom       -0.000884     -0.000849      0.001581
    38   Atom       -0.001049     -0.000452      0.000757
 --------------------------------------------------------


 ---------------------------------------------------------------------------------
              Anisotropic Spin Dipole Couplings in Principal Axis System
 ---------------------------------------------------------------------------------

       Atom             a.u.   MegaHertz   Gauss  10(-4) cm-1        Axes

              Baa    -0.0349    -4.686    -1.672    -1.563  0.7072 -0.4143 -0.5729
     1 C(13)  Bbb    -0.0301    -4.034    -1.440    -1.346  0.7069  0.4022  0.5818
              Bcc     0.0650     8.720     3.112     2.909  0.0106  0.8165 -0.5773
 
              Baa    -0.0371    -4.973    -1.774    -1.659 -0.0929  0.8223 -0.5614
     2 C(13)  Bbb     0.0103     1.378     0.492     0.460  0.0844  0.5683  0.8185
              Bcc     0.0268     3.595     1.283     1.199  0.9921  0.0286 -0.1222
 
              Baa    -0.0316    -4.246    -1.515    -1.416  0.4165  0.4632  0.7823
     3 C(13)  Bbb    -0.0269    -3.607    -1.287    -1.203  0.9053 -0.2901 -0.3102
              Bcc     0.0585     7.853     2.802     2.620  0.0833  0.8374 -0.5401
 
              Baa    -0.0175    -2.350    -0.839    -0.784  0.0081  0.8261 -0.5635
     4 C(13)  Bbb     0.0059     0.785     0.280     0.262  0.4197  0.5087  0.7517
              Bcc     0.0117     1.565     0.558     0.522  0.9076 -0.2426 -0.3426
 
              Baa    -0.0459    -6.165    -2.200    -2.056  0.5103  0.4958  0.7027
     5 C(13)  Bbb    -0.0409    -5.488    -1.958    -1.830  0.8599 -0.3045 -0.4096
              Bcc     0.0868    11.652     4.158     3.887  0.0109  0.8133 -0.5817
 
              Baa    -0.0061    -0.820    -0.293    -0.274  0.0122  0.8034 -0.5954
     6 C(13)  Bbb     0.0026     0.354     0.126     0.118  0.8947  0.2572  0.3653
              Bcc     0.0035     0.466     0.166     0.156 -0.4466  0.5371  0.7156
 
              Baa    -0.0037    -1.996    -0.712    -0.666  0.9380 -0.3447  0.0381
     7 H(1)   Bbb    -0.0021    -1.115    -0.398    -0.372  0.2883  0.7139 -0.6382
              Bcc     0.0058     3.112     1.110     1.038  0.1928  0.6096  0.7690
 
              Baa    -0.0020    -1.045    -0.373    -0.348 -0.1247  0.8085 -0.5751
     8 H(1)   Bbb    -0.0011    -0.578    -0.206    -0.193  0.4777  0.5569  0.6794
              Bcc     0.0030     1.623     0.579     0.541  0.8696 -0.1900 -0.4557
 
              Baa    -0.0068    -3.649    -1.302    -1.217  0.4622  0.4997  0.7326
     9 H(1)   Bbb    -0.0011    -0.577    -0.206    -0.192 -0.0049  0.8276 -0.5613
              Bcc     0.0079     4.226     1.508     1.410  0.8868 -0.2558 -0.3850
 
              Baa    -0.0016    -0.870    -0.310    -0.290 -0.1521  0.8277 -0.5402
    10 H(1)   Bbb    -0.0006    -0.324    -0.116    -0.108  0.8345 -0.1853 -0.5190
              Bcc     0.0022     1.194     0.426     0.398  0.5297  0.5297  0.6625
 
              Baa    -0.1153    -4.447    -1.587    -1.483  0.8873  0.2268  0.4016
    11 N(14)  Bbb    -0.1060    -4.090    -1.459    -1.364 -0.4544  0.5793  0.6768
              Bcc     0.2213     8.537     3.046     2.848  0.0792  0.7830 -0.6170
 
              Baa    -0.2677   -10.326    -3.684    -3.444  0.9331 -0.2591 -0.2495
    12 N(14)  Bbb    -0.2592    -9.998    -3.567    -3.335  0.3529  0.5258  0.7739
              Bcc     0.5270    20.323     7.252     6.779  0.0694  0.8102 -0.5821
 
              Baa    -0.1228   -16.481    -5.881    -5.498  0.2540  0.8015 -0.5414
    13 C(13)  Bbb     0.0502     6.739     2.405     2.248  0.9655 -0.2438  0.0920
              Bcc     0.0726     9.742     3.476     3.250  0.0583  0.5461  0.8357
 
              Baa    -0.0032    -0.433    -0.155    -0.145  0.8265 -0.5204  0.2149
    14 C(13)  Bbb    -0.0011    -0.147    -0.053    -0.049  0.5464  0.8333 -0.0837
              Bcc     0.0043     0.581     0.207     0.194 -0.1355  0.1866  0.9730
 
              Baa    -0.0028    -1.478    -0.527    -0.493  0.6604 -0.4993  0.5609
    15 H(1)   Bbb    -0.0013    -0.672    -0.240    -0.224  0.6941  0.6909 -0.2022
              Bcc     0.0040     2.149     0.767     0.717 -0.2866  0.5228  0.8028
 
              Baa    -0.0022    -1.168    -0.417    -0.390 -0.4508  0.8713 -0.1941
    16 H(1)   Bbb    -0.0014    -0.734    -0.262    -0.245  0.8760  0.4736  0.0915
              Bcc     0.0036     1.902     0.679     0.634 -0.1717  0.1288  0.9767
 
              Baa    -0.0030    -1.599    -0.570    -0.533 -0.5682  0.8228 -0.0143
    17 H(1)   Bbb    -0.0013    -0.674    -0.240    -0.225  0.8113  0.5572 -0.1770
              Bcc     0.0043     2.273     0.811     0.758  0.1377  0.1121  0.9841
 
              Baa    -0.0999    -4.098    -1.462    -1.367  0.0463  0.4064  0.9125
    18 S(33)  Bbb    -0.0873    -3.578    -1.277    -1.194  0.2675  0.8751 -0.4033
              Bcc     0.1872     7.676     2.739     2.560  0.9625 -0.2627  0.0682
 
              Baa    -0.0295     2.136     0.762     0.712  0.1179 -0.3530  0.9282
    19 O(17)  Bbb    -0.0158     1.145     0.409     0.382  0.5866  0.7790  0.2217
              Bcc     0.0453    -3.281    -1.171    -1.094  0.8013 -0.5183 -0.2988
 
              Baa    -0.0247     1.787     0.638     0.596 -0.1694  0.9654 -0.1985
    20 O(17)  Bbb    -0.0141     1.022     0.365     0.341 -0.0229  0.1975  0.9800
              Bcc     0.0388    -2.810    -1.003    -0.937  0.9853  0.1705 -0.0114
 
              Baa    -0.0205    -2.755    -0.983    -0.919  0.4392  0.3837  0.8123
    21 C(13)  Bbb    -0.0096    -1.291    -0.461    -0.431  0.8951 -0.1095 -0.4322
              Bcc     0.0302     4.047     1.444     1.350 -0.0769  0.9169 -0.3916
 
              Baa    -0.0132    -1.766    -0.630    -0.589  0.4888  0.3717  0.7892
    22 C(13)  Bbb    -0.0082    -1.103    -0.394    -0.368 -0.1542  0.9273 -0.3412
              Bcc     0.0214     2.870     1.024     0.957  0.8586 -0.0451 -0.5106
 
              Baa    -0.0046    -2.440    -0.871    -0.814  0.1022 -0.2893  0.9518
    23 H(1)   Bbb    -0.0016    -0.876    -0.313    -0.292  0.9217  0.3874  0.0188
              Bcc     0.0062     3.316     1.183     1.106 -0.3741  0.8754  0.3063
 
              Baa    -0.0040    -2.111    -0.753    -0.704  0.2518  0.4891  0.8351
    24 H(1)   Bbb    -0.0023    -1.204    -0.429    -0.401  0.4637  0.6964 -0.5477
              Bcc     0.0062     3.314     1.183     1.105  0.8495 -0.5251  0.0514
 
              Baa    -0.3729   -50.040   -17.856   -16.692 -0.5399  0.7343  0.4115
    25 C(13)  Bbb    -0.3650   -48.978   -17.476   -16.337  0.7681  0.2299  0.5976
              Bcc     0.7379    99.018    35.332    33.029 -0.3442 -0.6387  0.6881
 
              Baa    -0.0070    -3.741    -1.335    -1.248 -0.0760  0.9747  0.2102
    26 H(1)   Bbb    -0.0049    -2.632    -0.939    -0.878 -0.0992 -0.2172  0.9711
              Bcc     0.0119     6.373     2.274     2.126  0.9922  0.0529  0.1132
 
              Baa    -0.0068    -3.625    -1.294    -1.209  0.2202  0.9744  0.0453
    27 H(1)   Bbb    -0.0038    -2.034    -0.726    -0.679  0.5736 -0.1669  0.8020
              Bcc     0.0106     5.660     2.019     1.888  0.7890 -0.1506 -0.5956
 
              Baa    -0.0128    -1.711    -0.611    -0.571  0.9462 -0.0098  0.3235
    28 C(13)  Bbb    -0.0089    -1.194    -0.426    -0.398 -0.3173  0.1691  0.9331
              Bcc     0.0217     2.905     1.037     0.969  0.0638  0.9855 -0.1569
 
              Baa    -0.0459   -24.507    -8.745    -8.175 -0.6164  0.7037  0.3533
    29 H(1)   Bbb    -0.0074    -3.973    -1.418    -1.325  0.5108  0.6988 -0.5008
              Bcc     0.0534    28.480    10.163     9.500  0.5993  0.1283  0.7902
 
              Baa    -0.0077    -4.093    -1.460    -1.365 -0.4650  0.7142 -0.5232
    30 H(1)   Bbb    -0.0061    -3.265    -1.165    -1.089  0.8724  0.2690 -0.4082
              Bcc     0.0138     7.357     2.625     2.454  0.1508  0.6462  0.7481
 
              Baa    -0.0077    -4.111    -1.467    -1.371  0.5190 -0.2277  0.8239
    31 H(1)   Bbb    -0.0031    -1.644    -0.587    -0.548  0.8137 -0.1638 -0.5578
              Bcc     0.0108     5.755     2.054     1.920  0.2620  0.9599  0.1002
 
              Baa    -0.0045    -0.608    -0.217    -0.203  0.7267  0.4046  0.5551
    32 C(13)  Bbb    -0.0034    -0.454    -0.162    -0.151 -0.3833 -0.4318  0.8165
              Bcc     0.0079     1.062     0.379     0.354 -0.5701  0.8061  0.1587
 
              Baa    -0.0018    -0.245    -0.087    -0.082  0.6273  0.1380  0.7664
    33 C(13)  Bbb    -0.0001    -0.018    -0.006    -0.006  0.5774  0.5779 -0.5767
              Bcc     0.0020     0.262     0.094     0.088 -0.5225  0.8044  0.2829
 
              Baa    -0.0048    -2.560    -0.914    -0.854  0.3445  0.0183  0.9386
    34 H(1)   Bbb    -0.0021    -1.099    -0.392    -0.367  0.5200  0.8287 -0.2070
              Bcc     0.0069     3.660     1.306     1.221  0.7816 -0.5594 -0.2760
 
              Baa    -0.0040    -2.154    -0.769    -0.719  0.0573  0.2732  0.9602
    35 H(1)   Bbb    -0.0027    -1.452    -0.518    -0.484  0.7613  0.6103 -0.2191
              Bcc     0.0068     3.606     1.287     1.203 -0.6459  0.7436 -0.1730
 
              Baa    -0.0011    -0.596    -0.213    -0.199  0.4166  0.0387  0.9083
    36 H(1)   Bbb    -0.0008    -0.401    -0.143    -0.134  0.7491  0.5514 -0.3671
              Bcc     0.0019     0.997     0.356     0.333 -0.5151  0.8333  0.2007
 
              Baa    -0.0016    -0.858    -0.306    -0.286  0.6321 -0.2100  0.7459
    37 H(1)   Bbb    -0.0011    -0.565    -0.201    -0.188  0.7065  0.5516 -0.4433
              Bcc     0.0027     1.423     0.508     0.475 -0.3183  0.8072  0.4971
 
              Baa    -0.0017    -0.889    -0.317    -0.297  0.4571 -0.0487  0.8881
    38 H(1)   Bbb    -0.0011    -0.595    -0.212    -0.199  0.8405  0.3504 -0.4134
              Bcc     0.0028     1.484     0.530     0.495 -0.2910  0.9354  0.2010
 

 ---------------------------------------------------------------------------------

 Unable to Open any file for archive entry.
 1\1\GINC-CLUSTER\SP\UM062X\def2TZVP\C14H19N2O2S1(2)\KJIANG\21-Nov-2025
 \0\\# scrf=(solvent=n,n-dimethylformamide) def2tzvp m062x geom=allchec
 k\\Title Card Required\\0,2\C,0,-2.6269570992,-1.7282671806,-1.3670518
 842\C,0,-1.5229010427,-1.2231695837,-0.6605308982\C,0,-1.7331483124,-0
 .445670657,0.5038565713\C,0,-3.0072454117,-0.137310707,0.9839781772\C,
 0,-4.0793354018,-0.649187082,0.2681337183\C,0,-3.8908979836,-1.4344150
 333,-0.8891352451\H,0,-2.473329739,-2.330098824,-2.2560828703\H,0,-3.1
 52866874,0.4670484553,1.8736778639\H,0,-5.0894682509,-0.441280988,0.60
 58983033\H,0,-4.7625902848,-1.8124951407,-1.413303852\N,0,-0.483483693
 8,-0.1090024569,0.965708819\N,0,-0.1874323998,-1.3636901387,-0.9037697
 113\C,0,0.4100855858,-0.6047855963,0.0206931688\C,0,-0.2521468493,0.68
 83780263,2.158214998\H,0,-0.6551355393,1.6984185324,2.0206524492\H,0,-
 0.7601630866,0.2141103037,3.0028752073\H,0,0.8155187961,0.7390607356,2
 .3605586867\S,0,2.0956407204,-1.0747670998,0.4817999925\O,0,2.13776008
 71,-2.4694876329,0.8940030555\O,0,2.6171488167,-0.0339043596,1.3750130
 056\C,0,2.8292733407,-0.8502133258,-1.1342176437\C,0,2.6048625033,0.62
 36304329,-1.4740077871\H,0,2.2993768934,-1.5350922294,-1.8010961016\H,
 0,3.880908654,-1.1352966324,-1.0526281342\C,0,1.1674577968,1.038709009
 ,-1.2310030436\H,0,3.2690325576,1.2258340608,-0.8465500487\H,0,2.88340
 9511,0.7975134443,-2.5211807438\C,0,0.9396406969,2.3453213686,-0.52920
 50215\H,0,0.4721286859,0.8032863117,-2.0352631883\H,0,1.293887667,2.26
 50607792,0.5099127448\H,0,1.5938309745,3.1074740208,-0.9885830777\C,0,
 -0.5021364171,2.849399121,-0.5822665375\C,0,-0.684653729,4.1522856308,
 0.191468104\H,0,-1.1839892276,2.0825055772,-0.1954292192\H,0,-0.784590
 1283,2.9990554564,-1.6317710507\H,0,-1.7174437467,4.5074244643,0.14094
 15262\H,0,-0.4241961485,4.0226090029,1.2482529746\H,0,-0.037507921,4.9
 39443935,-0.2097723077\\Version=ES64L-G16RevC.02\State=2-A\HF=-1202.95
 7391\S2=0.776272\S2-1=0.\S2A=0.750346\RMSD=7.242e-09\Dipole=-0.684709,
 2.2027201,-0.8839569\Quadrupole=5.2174595,-8.2081551,2.9906956,4.03842
 95,-11.3226089,4.1295329\PG=C01 [X(C14H19N2O2S1)]\\@
 The archive entry for this job was punched.


 GOORD'S AXIOM:  A MEETING IS AN EVENT AT WHICH
 THE MINUTES ARE KEPT AND THE HOURS ARE LOST.
 Job cpu time:       0 days  3 hours 25 minutes 24.1 seconds.
 Elapsed time:       0 days  0 hours  2 minutes 29.1 seconds.
 File lengths (MBytes):  RWF=    582 Int=      0 D2E=      0 Chk=     47 Scr=      1
 Normal termination of Gaussian 16 at Fri Nov 21 18:41:30 2025.
