 Entering Gaussian System, Link 0=g16
 Initial command:
 /public/software/g16/l1.exe "/tmp/Gau-13173.inp" -scrdir="/tmp/"
 Entering Link 1 = /public/software/g16/l1.exe PID=     13174.
  
 Copyright (c) 1988-2021, Gaussian, Inc.  All Rights Reserved.
  
 This is part of the Gaussian(R) 16 program.  It is based on
 the Gaussian(R) 09 system (copyright 2009, Gaussian, Inc.),
 the Gaussian(R) 03 system (copyright 2003, Gaussian, Inc.),
 the Gaussian(R) 98 system (copyright 1998, Gaussian, Inc.),
 the Gaussian(R) 94 system (copyright 1995, Gaussian, Inc.),
 the Gaussian 92(TM) system (copyright 1992, Gaussian, Inc.),
 the Gaussian 90(TM) system (copyright 1990, Gaussian, Inc.),
 the Gaussian 88(TM) system (copyright 1988, Gaussian, Inc.),
 the Gaussian 86(TM) system (copyright 1986, Carnegie Mellon
 University), and the Gaussian 82(TM) system (copyright 1983,
 Carnegie Mellon University). Gaussian is a federally registered
 trademark of Gaussian, Inc.
  
 This software contains proprietary and confidential information,
 including trade secrets, belonging to Gaussian, Inc.
  
 This software is provided under written license and may be
 used, copied, transmitted, or stored only in accord with that
 written license.
  
 The following legend is applicable only to US Government
 contracts under FAR:
  
                    RESTRICTED RIGHTS LEGEND
  
 Use, reproduction and disclosure by the US Government is
 subject to restrictions as set forth in subparagraphs (a)
 and (c) of the Commercial Computer Software - Restricted
 Rights clause in FAR 52.227-19.
  
 Gaussian, Inc.
 340 Quinnipiac St., Bldg. 40, Wallingford CT 06492
  
  
 ---------------------------------------------------------------
 Warning -- This program may not be used in any manner that
 competes with the business of Gaussian, Inc. or will provide
 assistance to any competitor of Gaussian, Inc.  The licensee
 of this program is prohibited from giving any competitor of
 Gaussian, Inc. access to this program.  By using this program,
 the user acknowledges that Gaussian, Inc. is engaged in the
 business of creating and licensing software in the field of
 computational chemistry and represents and warrants to the
 licensee that it is not a competitor of Gaussian, Inc. and that
 it will not use this program in any manner prohibited above.
 ---------------------------------------------------------------
  

 Cite this work as:
 Gaussian 16, Revision C.02,
 M. J. Frisch, G. W. Trucks, H. B. Schlegel, G. E. Scuseria, 
 M. A. Robb, J. R. Cheeseman, G. Scalmani, V. Barone, 
 G. A. Petersson, H. Nakatsuji, X. Li, M. Caricato, A. V. Marenich, 
 J. Bloino, B. G. Janesko, R. Gomperts, B. Mennucci, H. P. Hratchian, 
 J. V. Ortiz, A. F. Izmaylov, J. L. Sonnenberg, D. Williams-Young, 
 F. Ding, F. Lipparini, F. Egidi, J. Goings, B. Peng, A. Petrone, 
 T. Henderson, D. Ranasinghe, V. G. Zakrzewski, J. Gao, N. Rega, 
 G. Zheng, W. Liang, M. Hada, M. Ehara, K. Toyota, R. Fukuda, 
 J. Hasegawa, M. Ishida, T. Nakajima, Y. Honda, O. Kitao, H. Nakai, 
 T. Vreven, K. Throssell, J. A. Montgomery, Jr., J. E. Peralta, 
 F. Ogliaro, M. J. Bearpark, J. J. Heyd, E. N. Brothers, K. N. Kudin, 
 V. N. Staroverov, T. A. Keith, R. Kobayashi, J. Normand, 
 K. Raghavachari, A. P. Rendell, J. C. Burant, S. S. Iyengar, 
 J. Tomasi, M. Cossi, J. M. Millam, M. Klene, C. Adamo, R. Cammi, 
 J. W. Ochterski, R. L. Martin, K. Morokuma, O. Farkas, 
 J. B. Foresman, and D. J. Fox, Gaussian, Inc., Wallingford CT, 2019.
 
 ******************************************
 Gaussian 16:  ES64L-G16RevC.02  7-Dec-2021
                21-Nov-2025 
 ******************************************
 %nprocshared=96
 Will use up to   96 processors via shared memory.
 %mem=10GB
 %chk=TS2.chk
 -------------------------------------------------------------------
 # scrf=(solvent=n,n-dimethylformamide) def2tzvp m062x geom=allcheck
 -------------------------------------------------------------------
 1/29=7,38=1,172=1/1;
 2/12=2,40=1/2;
 3/5=44,7=101,11=2,14=-4,25=1,30=1,70=2201,72=148,74=-55/1,2,3;
 4//1;
 5/5=2,38=5,53=148/2;
 6/7=2,8=2,9=2,10=2,28=1/1;
 99/5=1,9=1/99;
 Structure from the checkpoint file:  "TS2.chk"
 -------------------
 Title Card Required
 -------------------
 Charge =  0 Multiplicity = 2
 Redundant internal coordinates found in file.  (old form).
 C,0,-2.8354807828,-0.6205778075,-1.5239850001
 C,0,-1.6276573776,-0.3188445158,-0.8577209908
 C,0,-1.6299856295,-0.155386599,0.5607781499
 C,0,-2.7866131463,-0.2977421399,1.3277236789
 C,0,-3.9546862795,-0.5974668522,0.6415523205
 C,0,-3.9784096596,-0.7547069191,-0.7645773682
 H,0,-2.8371964951,-0.7483155934,-2.6006727334
 H,0,-2.7749842763,-0.1815776072,2.4064150419
 H,0,-4.8783018364,-0.7183243625,1.1985416755
 H,0,-4.9201597829,-0.9933523012,-1.247673323
 N,0,-0.3486786945,0.1599019708,0.9074439384
 N,0,-0.3964215345,-0.1274687407,-1.3631834374
 C,0,0.4363866308,0.0452959436,-0.2742876092
 C,0,0.0953158179,0.3057103265,2.2792731813
 H,0,-0.3867741614,1.1799850713,2.7303296313
 H,0,-0.1414924942,-0.5952046937,2.8515454243
 H,0,1.1751956992,0.4376303897,2.3031475083
 S,0,1.4258220468,-1.8197179343,-0.043345373
 O,0,1.0236318641,-2.8663065717,-0.9793749405
 O,0,1.4614056958,-2.0836454418,1.4043538572
 C,0,3.0385092449,-1.1228680985,-0.4843941507
 C,0,2.9646658511,0.3096761379,0.0291181672
 H,0,3.1227676412,-1.1728483722,-1.5729063839
 H,0,3.8043927535,-1.7392832789,-0.0092133393
 C,0,1.661042383,0.9447425721,-0.4922041739
 H,0,3.0037368752,0.309950378,1.124270459
 H,0,3.819238984,0.8918742364,-0.3282323764
 C,0,1.4356712738,2.3736956649,0.0082087698
 H,0,1.7436297517,0.9796008519,-1.5860755135
 H,0,1.3515331271,2.3836558207,1.1030757984
 H,0,2.3338085735,2.9591196686,-0.2324629579
 C,0,0.2107568809,3.0509581785,-0.606906525
 C,0,0.0736400278,4.5014101946,-0.1517943742
 H,0,-0.6931157761,2.49105481,-0.3387091366
 H,0,0.2852191711,3.0041349195,-1.7002880666
 H,0,-0.8059829935,4.9760229782,-0.5947382036
 H,0,-0.0258047758,4.56219198,0.9373897089
 H,0,0.9526724025,5.0886027365,-0.438179334
 Recover connectivity data from disk.
                           ----------------------------
                           !    Current Parameters    !
                           ! (Angstroms and Degrees)  !
 --------------------------                            --------------------------
 ! Name  Definition              Value                                          !
 --------------------------------------------------------------------------------
 ! R1    R(1,2)                  1.412                                          !
 ! R2    R(1,6)                  1.3788                                         !
 ! R3    R(1,7)                  1.0842                                         !
 ! R4    R(2,3)                  1.4279                                         !
 ! R5    R(2,12)                 1.3446                                         !
 ! R6    R(3,4)                  1.3951                                         !
 ! R7    R(3,11)                 1.3643                                         !
 ! R8    R(4,5)                  1.3875                                         !
 ! R9    R(4,8)                  1.085                                          !
 ! R10   R(5,6)                  1.4151                                         !
 ! R11   R(5,9)                  1.0853                                         !
 ! R12   R(6,10)                 1.085                                          !
 ! R13   R(11,13)                1.4234                                         !
 ! R14   R(11,14)                1.4492                                         !
 ! R15   R(12,13)                1.3817                                         !
 ! R16   R(13,18)                2.1238                                         !
 ! R17   R(13,25)                1.535                                          !
 ! R18   R(14,15)                1.0955                                         !
 ! R19   R(14,16)                1.0933                                         !
 ! R20   R(14,17)                1.0882                                         !
 ! R21   R(18,19)                1.4606                                         !
 ! R22   R(18,20)                1.472                                          !
 ! R23   R(18,21)                1.8113                                         !
 ! R24   R(21,22)                1.5236                                         !
 ! R25   R(21,23)                1.0929                                         !
 ! R26   R(21,24)                1.0919                                         !
 ! R27   R(22,25)                1.5409                                         !
 ! R28   R(22,26)                1.0958                                         !
 ! R29   R(22,27)                1.0941                                         !
 ! R30   R(25,28)                1.5307                                         !
 ! R31   R(25,29)                1.0975                                         !
 ! R32   R(28,30)                1.0981                                         !
 ! R33   R(28,31)                1.0988                                         !
 ! R34   R(28,32)                1.5289                                         !
 ! R35   R(32,33)                1.5263                                         !
 ! R36   R(32,34)                1.0965                                         !
 ! R37   R(32,35)                1.0969                                         !
 ! R38   R(33,36)                1.0932                                         !
 ! R39   R(33,37)                1.0954                                         !
 ! R40   R(33,38)                1.0952                                         !
 ! A1    A(2,1,6)              118.0327                                         !
 ! A2    A(2,1,7)              119.676                                          !
 ! A3    A(6,1,7)              122.2884                                         !
 ! A4    A(1,2,3)              119.4601                                         !
 ! A5    A(1,2,12)             129.5155                                         !
 ! A6    A(3,2,12)             111.0165                                         !
 ! A7    A(2,3,4)              122.3985                                         !
 ! A8    A(2,3,11)             106.1021                                         !
 ! A9    A(4,3,11)             131.493                                          !
 ! A10   A(3,4,5)              116.6245                                         !
 ! A11   A(3,4,8)              121.7859                                         !
 ! A12   A(5,4,8)              121.5896                                         !
 ! A13   A(4,5,6)              121.974                                          !
 ! A14   A(4,5,9)              119.1236                                         !
 ! A15   A(6,5,9)              118.9021                                         !
 ! A16   A(1,6,5)              121.5065                                         !
 ! A17   A(1,6,10)             119.7138                                         !
 ! A18   A(5,6,10)             118.7782                                         !
 ! A19   A(3,11,13)            106.7642                                         !
 ! A20   A(3,11,14)            123.4699                                         !
 ! A21   A(13,11,14)           128.6834                                         !
 ! A22   A(2,12,13)            105.8699                                         !
 ! A23   A(11,13,12)           109.3853                                         !
 ! A24   A(11,13,18)           103.7322                                         !
 ! A25   A(11,13,25)           120.7121                                         !
 ! A26   A(12,13,18)           104.8741                                         !
 ! A27   A(12,13,25)           116.2482                                         !
 ! A28   A(18,13,25)            99.1085                                         !
 ! A29   A(11,14,15)           109.5848                                         !
 ! A30   A(11,14,16)           110.2565                                         !
 ! A31   A(11,14,17)           109.6938                                         !
 ! A32   A(15,14,16)           110.2911                                         !
 ! A33   A(15,14,17)           109.3243                                         !
 ! A34   A(16,14,17)           107.6604                                         !
 ! A35   A(13,18,19)           115.5483                                         !
 ! A36   A(13,18,20)           106.0012                                         !
 ! A37   A(13,18,21)            92.893                                          !
 ! A38   A(19,18,20)           120.5619                                         !
 ! A39   A(19,18,21)           111.395                                          !
 ! A40   A(20,18,21)           106.6745                                         !
 ! A41   A(18,21,22)           103.6806                                         !
 ! A42   A(18,21,23)           107.0714                                         !
 ! A43   A(18,21,24)           107.538                                          !
 ! A44   A(22,21,23)           112.4836                                         !
 ! A45   A(22,21,24)           114.7148                                         !
 ! A46   A(23,21,24)           110.7032                                         !
 ! A47   A(21,22,25)           108.3292                                         !
 ! A48   A(21,22,26)           109.5928                                         !
 ! A49   A(21,22,27)           110.6344                                         !
 ! A50   A(25,22,26)           111.602                                          !
 ! A51   A(25,22,27)           109.329                                          !
 ! A52   A(26,22,27)           107.3639                                         !
 ! A53   A(13,25,22)           112.6701                                         !
 ! A54   A(13,25,28)           112.5272                                         !
 ! A55   A(13,25,29)           102.7169                                         !
 ! A56   A(22,25,28)           113.496                                          !
 ! A57   A(22,25,29)           106.6553                                         !
 ! A58   A(28,25,29)           107.8936                                         !
 ! A59   A(25,28,30)           110.2237                                         !
 ! A60   A(25,28,31)           107.7836                                         !
 ! A61   A(25,28,32)           113.5758                                         !
 ! A62   A(30,28,31)           106.0324                                         !
 ! A63   A(30,28,32)           109.6168                                         !
 ! A64   A(31,28,32)           109.3141                                         !
 ! A65   A(28,32,33)           111.8985                                         !
 ! A66   A(28,32,34)           109.6223                                         !
 ! A67   A(28,32,35)           109.1316                                         !
 ! A68   A(33,32,34)           109.7698                                         !
 ! A69   A(33,32,35)           110.113                                          !
 ! A70   A(34,32,35)           106.1383                                         !
 ! A71   A(32,33,36)           111.347                                          !
 ! A72   A(32,33,37)           110.9383                                         !
 ! A73   A(32,33,38)           111.0642                                         !
 ! A74   A(36,33,37)           107.8021                                         !
 ! A75   A(36,33,38)           107.883                                          !
 ! A76   A(37,33,38)           107.6449                                         !
 ! D1    D(6,1,2,3)             -0.4227                                         !
 ! D2    D(6,1,2,12)          -179.3076                                         !
 ! D3    D(7,1,2,3)           -179.8206                                         !
 ! D4    D(7,1,2,12)             1.2945                                         !
 ! D5    D(2,1,6,5)             -0.0197                                         !
 ! D6    D(2,1,6,10)          -179.5637                                         !
 ! D7    D(7,1,6,5)            179.3615                                         !
 ! D8    D(7,1,6,10)            -0.1825                                         !
 ! D9    D(1,2,3,4)              0.7479                                         !
 ! D10   D(1,2,3,11)          -178.4282                                         !
 ! D11   D(12,2,3,4)           179.8264                                         !
 ! D12   D(12,2,3,11)            0.6503                                         !
 ! D13   D(1,2,12,13)         -175.9101                                         !
 ! D14   D(3,2,12,13)            5.13                                           !
 ! D15   D(2,3,4,5)             -0.5779                                         !
 ! D16   D(2,3,4,8)            179.3455                                         !
 ! D17   D(11,3,4,5)           178.3652                                         !
 ! D18   D(11,3,4,8)            -1.7114                                         !
 ! D19   D(2,3,11,13)           -6.0003                                         !
 ! D20   D(2,3,11,14)         -175.0153                                         !
 ! D21   D(4,3,11,13)          174.9284                                         !
 ! D22   D(4,3,11,14)            5.9135                                         !
 ! D23   D(3,4,5,6)              0.1169                                         !
 ! D24   D(3,4,5,9)            179.9256                                         !
 ! D25   D(8,4,5,6)           -179.8067                                         !
 ! D26   D(8,4,5,9)              0.0021                                         !
 ! D27   D(4,5,6,1)              0.1808                                         !
 ! D28   D(4,5,6,10)           179.7289                                         !
 ! D29   D(9,5,6,1)           -179.6284                                         !
 ! D30   D(9,5,6,10)            -0.0803                                         !
 ! D31   D(3,11,13,12)           9.4529                                         !
 ! D32   D(3,11,13,18)        -102.0235                                         !
 ! D33   D(3,11,13,25)         148.4214                                         !
 ! D34   D(14,11,13,12)        177.7036                                         !
 ! D35   D(14,11,13,18)         66.2273                                         !
 ! D36   D(14,11,13,25)        -43.3279                                         !
 ! D37   D(3,11,14,15)         -66.8401                                         !
 ! D38   D(3,11,14,16)          54.7376                                         !
 ! D39   D(3,11,14,17)         173.1333                                         !
 ! D40   D(13,11,14,15)        126.6769                                         !
 ! D41   D(13,11,14,16)       -111.7455                                         !
 ! D42   D(13,11,14,17)          6.6502                                         !
 ! D43   D(2,12,13,11)          -8.8952                                         !
 ! D44   D(2,12,13,18)         101.8266                                         !
 ! D45   D(2,12,13,25)        -149.8976                                         !
 ! D46   D(11,13,18,19)        112.5083                                         !
 ! D47   D(11,13,18,20)        -23.8248                                         !
 ! D48   D(11,13,18,21)       -132.0874                                         !
 ! D49   D(12,13,18,19)         -2.2276                                         !
 ! D50   D(12,13,18,20)       -138.5607                                         !
 ! D51   D(12,13,18,21)        113.1767                                         !
 ! D52   D(25,13,18,19)       -122.6266                                         !
 ! D53   D(25,13,18,20)        101.0403                                         !
 ! D54   D(25,13,18,21)         -7.2223                                         !
 ! D55   D(11,13,25,22)         91.594                                          !
 ! D56   D(11,13,25,28)        -38.2729                                         !
 ! D57   D(11,13,25,29)       -154.0325                                         !
 ! D58   D(12,13,25,22)       -132.0719                                         !
 ! D59   D(12,13,25,28)         98.0613                                         !
 ! D60   D(12,13,25,29)        -17.6984                                         !
 ! D61   D(18,13,25,22)        -20.4227                                         !
 ! D62   D(18,13,25,28)       -150.2896                                         !
 ! D63   D(18,13,25,29)         93.9508                                         !
 ! D64   D(13,18,21,22)         31.9336                                         !
 ! D65   D(13,18,21,23)        -87.1757                                         !
 ! D66   D(13,18,21,24)        153.8184                                         !
 ! D67   D(19,18,21,22)        150.8532                                         !
 ! D68   D(19,18,21,23)         31.7439                                         !
 ! D69   D(19,18,21,24)        -87.262                                          !
 ! D70   D(20,18,21,22)        -75.72                                           !
 ! D71   D(20,18,21,23)        165.1707                                         !
 ! D72   D(20,18,21,24)         46.1648                                         !
 ! D73   D(18,21,22,25)        -50.5013                                         !
 ! D74   D(18,21,22,26)         71.4763                                         !
 ! D75   D(18,21,22,27)       -170.325                                          !
 ! D76   D(23,21,22,25)         64.8225                                         !
 ! D77   D(23,21,22,26)       -173.1999                                         !
 ! D78   D(23,21,22,27)        -55.0012                                         !
 ! D79   D(24,21,22,25)       -167.4661                                         !
 ! D80   D(24,21,22,26)        -45.4885                                         !
 ! D81   D(24,21,22,27)         72.7102                                         !
 ! D82   D(21,22,25,13)         48.0421                                         !
 ! D83   D(21,22,25,28)        177.4119                                         !
 ! D84   D(21,22,25,29)        -63.9187                                         !
 ! D85   D(26,22,25,13)        -72.6963                                         !
 ! D86   D(26,22,25,28)         56.6735                                         !
 ! D87   D(26,22,25,29)        175.3429                                         !
 ! D88   D(27,22,25,13)        168.6803                                         !
 ! D89   D(27,22,25,28)        -61.9499                                         !
 ! D90   D(27,22,25,29)         56.7195                                         !
 ! D91   D(13,25,28,30)         67.6357                                         !
 ! D92   D(13,25,28,31)       -177.0706                                         !
 ! D93   D(13,25,28,32)        -55.809                                          !
 ! D94   D(22,25,28,30)        -61.8065                                         !
 ! D95   D(22,25,28,31)         53.4872                                         !
 ! D96   D(22,25,28,32)        174.7487                                         !
 ! D97   D(29,25,28,30)       -179.761                                          !
 ! D98   D(29,25,28,31)        -64.4673                                         !
 ! D99   D(29,25,28,32)         56.7942                                         !
 ! D100  D(25,28,32,33)       -176.3002                                         !
 ! D101  D(25,28,32,34)         61.672                                          !
 ! D102  D(25,28,32,35)        -54.1784                                         !
 ! D103  D(30,28,32,33)         59.9242                                         !
 ! D104  D(30,28,32,34)        -62.1036                                         !
 ! D105  D(30,28,32,35)       -177.954                                          !
 ! D106  D(31,28,32,33)        -55.8991                                         !
 ! D107  D(31,28,32,34)       -177.9269                                         !
 ! D108  D(31,28,32,35)         66.2228                                         !
 ! D109  D(28,32,33,36)       -179.8578                                         !
 ! D110  D(28,32,33,37)        -59.7916                                         !
 ! D111  D(28,32,33,38)         59.8885                                         !
 ! D112  D(34,32,33,36)        -57.9145                                         !
 ! D113  D(34,32,33,37)         62.1517                                         !
 ! D114  D(34,32,33,38)       -178.1682                                         !
 ! D115  D(35,32,33,36)         58.5838                                         !
 ! D116  D(35,32,33,37)        178.65                                           !
 ! D117  D(35,32,33,38)        -61.6699                                         !
 --------------------------------------------------------------------------------
                          Input orientation:                          
 ---------------------------------------------------------------------
 Center     Atomic      Atomic             Coordinates (Angstroms)
 Number     Number       Type             X           Y           Z
 ---------------------------------------------------------------------
      1          6           0       -2.835481   -0.620578   -1.523985
      2          6           0       -1.627657   -0.318845   -0.857721
      3          6           0       -1.629986   -0.155387    0.560778
      4          6           0       -2.786613   -0.297742    1.327724
      5          6           0       -3.954686   -0.597467    0.641552
      6          6           0       -3.978410   -0.754707   -0.764577
      7          1           0       -2.837196   -0.748316   -2.600673
      8          1           0       -2.774984   -0.181578    2.406415
      9          1           0       -4.878302   -0.718324    1.198542
     10          1           0       -4.920160   -0.993352   -1.247673
     11          7           0       -0.348679    0.159902    0.907444
     12          7           0       -0.396422   -0.127469   -1.363183
     13          6           0        0.436387    0.045296   -0.274288
     14          6           0        0.095316    0.305710    2.279273
     15          1           0       -0.386774    1.179985    2.730330
     16          1           0       -0.141492   -0.595205    2.851545
     17          1           0        1.175196    0.437630    2.303148
     18         16           0        1.425822   -1.819718   -0.043345
     19          8           0        1.023632   -2.866307   -0.979375
     20          8           0        1.461406   -2.083645    1.404354
     21          6           0        3.038509   -1.122868   -0.484394
     22          6           0        2.964666    0.309676    0.029118
     23          1           0        3.122768   -1.172848   -1.572906
     24          1           0        3.804393   -1.739283   -0.009213
     25          6           0        1.661042    0.944743   -0.492204
     26          1           0        3.003737    0.309950    1.124270
     27          1           0        3.819239    0.891874   -0.328232
     28          6           0        1.435671    2.373696    0.008209
     29          1           0        1.743630    0.979601   -1.586076
     30          1           0        1.351533    2.383656    1.103076
     31          1           0        2.333809    2.959120   -0.232463
     32          6           0        0.210757    3.050958   -0.606907
     33          6           0        0.073640    4.501410   -0.151794
     34          1           0       -0.693116    2.491055   -0.338709
     35          1           0        0.285219    3.004135   -1.700288
     36          1           0       -0.805983    4.976023   -0.594738
     37          1           0       -0.025805    4.562192    0.937390
     38          1           0        0.952672    5.088603   -0.438179
 ---------------------------------------------------------------------
                    Distance matrix (angstroms):
                    1          2          3          4          5
     1  C    0.000000
     2  C    1.412016   0.000000
     3  C    2.452725   1.427888   0.000000
     4  C    2.870340   2.473821   1.395083   0.000000
     5  C    2.437767   2.782178   2.367740   1.387466   0.000000
     6  C    1.378759   2.392632   2.762399   2.450902   1.415093
     7  H    1.084240   2.164558   3.435651   3.954475   3.432719
     8  H    3.955303   3.462627   2.172115   1.084991   2.163192
     9  H    3.405117   3.867104   3.357856   2.137461   1.085315
    10  H    2.135696   3.383430   3.846808   3.415928   2.158249
    11  N    3.564433   2.231769   1.364306   2.515869   3.694265
    12  N    2.493597   1.344641   2.285626   3.603192   4.111096
    13  C    3.565143   2.175608   2.237745   3.615500   4.531383
    14  C    4.890026   3.633103   2.478407   3.094368   4.460984
    15  H    5.228516   4.081714   2.834739   3.148048   4.500258
    16  H    5.138432   4.005461   2.767068   3.067113   4.407326
    17  H    5.643782   4.291775   3.355080   4.145860   5.490721
    18  S    4.667862   3.498509   3.531703   4.684106   5.559933
    19  O    4.498072   3.678817   4.094245   5.141808   5.706022
    20  O    5.401756   4.215900   3.739853   4.608795   5.667861
    21  C    5.986385   4.749625   4.880907   6.156026   7.102717
    22  C    6.076117   4.719211   4.648631   5.927271   7.005385
    23  H    5.983989   4.879278   5.308154   6.640802   7.438094
    24  H    6.901736   5.678449   5.689120   6.877994   7.869596
    25  C    4.871706   3.542005   3.626282   4.963622   5.932978
    26  H    6.478858   5.076759   4.690996   5.825705   7.033923
    27  H    6.928393   5.604898   5.619710   6.913368   7.974493
    28  C    5.436546   4.169363   4.012461   5.167725   6.187478
    29  H    4.851049   3.685382   4.156736   5.535786   6.318249
    30  H    5.784285   4.474797   3.953515   4.936053   6.103774
    31  H    6.419020   5.179692   5.103043   6.265784   7.277251
    32  C    4.858063   3.846849   3.877173   4.892935   5.676317
    33  C    6.048194   5.160194   5.009576   5.779436   6.546400
    34  H    3.959402   3.006372   2.947958   3.864857   4.597578
    35  H    4.786271   3.925711   4.331629   5.432072   6.035938
    36  H    6.025305   5.364693   5.324055   5.952424   6.519704
    37  H    6.388564   5.441771   4.997077   5.602980   6.491973
    38  H    6.937133   6.006214   5.930216   6.790683   7.588108
                    6          7          8          9         10
     6  C    0.000000
     7  H    2.161864   0.000000
     8  H    3.439753   5.039443   0.000000
     9  H    2.159853   4.312892   2.484150   0.000000
    10  H    1.085001   2.495874   4.314292   2.461983   0.000000
    11  N    4.099648   4.395960   2.872365   4.623149   5.183914
    12  N    3.685430   2.806103   4.457618   5.196037   4.607310
    13  C    4.513404   4.093682   4.189337   5.567608   5.542460
    14  C    5.194685   5.790032   2.914144   5.191676   6.267528
    15  H    5.371895   6.175961   2.768090   5.111142   6.410888
    16  H    5.274819   6.084155   2.702685   5.018460   6.308548
    17  H    6.114920   6.446178   3.999751   6.261088   7.197875
    18  S    5.555191   5.085386   5.131433   6.518998   6.511895
    19  O    5.433729   4.692599   5.753332   6.647554   6.237676
    20  O    6.005159   6.025058   4.750683   6.488324   6.996168
    21  C    7.032154   6.256424   6.560451   8.103816   7.996235
    22  C    7.068887   6.457302   6.231890   7.996029   8.093118
    23  H    7.159257   6.062813   7.183390   8.479660   8.051502
    24  H    7.881115   7.197804   7.179827   8.825543   8.843529
    25  C    5.896248   5.248451   5.417465   6.956108   6.902113
    26  H    7.311061   7.007969   5.939622   7.949176   8.373342
    27  H    7.981538   7.222350   7.219029   8.976135   8.987577
    28  C    6.300506   5.900052   5.478178   7.130479   7.301427
    29  H    6.035265   4.999907   6.140537   7.381532   6.957956
    30  H    6.461094   6.408779   5.030632   6.960046   7.500956
    31  H    7.343007   6.789167   6.551902   8.221065   8.323025
    32  C    5.661896   5.263041   5.333296   6.585260   6.564551
    33  C    6.664936   6.483024   6.048923   7.320571   7.505425
    34  H    4.637832   4.495229   4.360372   5.493545   5.552946
    35  H    5.760467   4.963976   6.031469   6.994417   6.578809
    36  H    6.552435   6.396691   6.283688   7.226702   7.279163
    37  H    6.840263   6.973041   5.676211   7.176265   7.719669
    38  H    7.652867   7.287599   7.054215   8.390442   8.493269
                   11         12         13         14         15
    11  N    0.000000
    12  N    2.289238   0.000000
    13  C    1.423359   1.381706   0.000000
    14  C    1.449243   3.700938   2.589366   0.000000
    15  H    2.089242   4.297252   3.315545   1.095545   0.000000
    16  H    2.095863   4.248259   3.242687   1.093262   1.796150
    17  H    2.085022   4.028809   2.709785   1.088170   1.781383
    18  S    2.823428   2.815360   2.123816   3.417931   4.469563
    19  O    3.821159   3.108873   3.052775   4.641363   5.667771
    20  O    2.925206   3.864895   2.898429   2.888028   3.978098
    21  C    3.880175   3.682640   2.860034   4.282649   5.231649
    22  C    3.431055   3.664220   2.560107   3.646421   4.391598
    23  H    4.469821   3.677159   3.222876   5.117703   6.030800
    24  H    4.657807   4.698726   3.820792   4.814190   5.795956
    25  C    2.571764   2.478185   1.535016   3.246683   3.825391
    26  H    3.362769   4.235545   2.935523   3.129371   3.851227
    27  H    4.408426   4.458921   3.487592   4.583697   5.208489
    28  C    2.982182   3.390148   2.549474   3.351246   3.486573
    29  H    3.356680   2.419732   2.074270   4.255818   4.817689
    30  H    2.806078   3.929825   2.864009   2.698033   2.668050
    31  H    4.041132   4.273139   3.477402   4.284886   4.398299
    32  C    3.311258   3.323104   3.032416   3.984940   3.872303
    33  C    4.488767   4.807800   4.472532   4.849171   4.421593
    34  H    2.665672   2.827409   2.694747   3.500169   3.351380
    35  H    3.910467   3.222610   3.288017   4.811909   4.838333
    36  H    5.065639   5.177246   5.094923   5.557347   5.063765
    37  H    4.414216   5.236689   4.699376   4.464634   3.845030
    38  H    5.272220   5.466543   5.072313   5.567375   5.206809
                   16         17         18         19         20
    16  H    0.000000
    17  H    1.761010   0.000000
    18  S    3.512307   3.265649   0.000000
    19  O    4.603408   4.659820   1.460567   0.000000
    20  O    2.622804   2.691947   1.471991   2.546835   0.000000
    21  C    4.638893   3.698308   1.811321   2.710040   2.641537
    22  C    4.293381   2.896513   2.628233   3.856363   3.143096
    23  H    5.528548   4.627145   2.374368   2.761603   3.528988
    24  H    5.006283   4.122941   2.380175   3.153415   2.757960
    25  C    4.098930   2.882222   2.810524   3.894576   3.578816
    26  H    3.700710   2.179361   2.896313   4.293571   2.861212
    27  H    5.292427   3.757853   3.627994   4.728988   4.173122
    28  C    4.402997   3.013792   4.193742   5.348151   4.670950
    29  H    5.072098   3.967733   3.212040   3.959481   4.290198
    30  H    3.762962   2.293094   4.357540   5.657404   4.478797
    31  H    5.317090   3.758938   4.868007   6.017477   5.373056
    32  C    5.037804   4.028404   5.051482   5.984440   5.654507
    33  C    5.919613   4.873856   6.465046   7.474666   6.907275
    34  H    4.472920   3.832303   4.812473   5.662066   5.348655
    35  H    5.818635   4.838026   5.226470   5.960457   6.075173
    36  H    6.584603   5.737579   7.174056   8.062107   7.679605
    37  H    5.502374   4.507738   6.617993   7.743248   6.826200
    38  H    6.657714   5.403326   6.935752   7.973613   7.422593
                   21         22         23         24         25
    21  C    0.000000
    22  C    1.523591   0.000000
    23  H    1.092912   2.188460   0.000000
    24  H    1.091944   2.214689   1.797386   0.000000
    25  C    2.484450   1.540948   2.790833   3.468606   0.000000
    26  H    2.154525   1.095849   3.080199   2.474913   2.195172
    27  H    2.166359   1.094052   2.509455   2.650469   2.165062
    28  C    3.877848   2.568743   4.233697   4.746340   1.530723
    29  H    2.703847   2.132740   2.556410   3.758400   1.097538
    30  H    4.202578   2.838481   4.790290   4.924666   2.170527
    31  H    4.150024   2.736048   4.415020   4.928230   2.139578
    32  C    5.043017   3.937406   5.220489   6.018128   2.559810
    33  C    6.366599   5.095232   6.596510   7.272214   3.909682
    34  H    5.196796   4.274702   5.432163   6.183196   2.820763
    35  H    5.107950   4.174972   5.051247   6.143642   2.755622
    36  H    7.210324   6.031731   7.362100   8.166624   4.727362
    37  H    6.612972   5.277477   7.007552   7.434720   4.239709
    38  H    6.552497   5.206210   6.723294   7.411906   4.204317
                   26         27         28         29         30
    26  H    0.000000
    27  H    1.764495   0.000000
    28  C    2.821962   2.826726   0.000000
    29  H    3.063050   2.428584   2.140112   0.000000
    30  H    2.651505   3.219259   1.098140   3.058863   0.000000
    31  H    3.050840   2.547387   1.098770   2.469630   1.754904
    32  C    4.279116   4.214314   1.528878   2.756627   2.161181
    33  C    5.270877   5.204747   2.531383   4.153212   2.773553
    34  H    4.534782   4.787362   2.160060   3.127003   2.504170
    35  H    4.756795   4.339756   2.154056   2.497748   3.062820
    36  H    6.264279   6.176081   3.487215   4.843002   3.775952
    37  H    5.224424   5.464192   2.790843   4.725858   2.582737
    38  H    5.429883   5.083485   2.793433   4.339029   3.138677
                   31         32         33         34         35
    31  H    0.000000
    32  C    2.157774   0.000000
    33  C    2.737431   1.526348   0.000000
    34  H    3.064742   1.096543   2.159718   0.000000
    35  H    2.520566   1.096914   2.164355   1.753365   0.000000
    36  H    3.749324   2.177104   1.093249   2.500671   2.510240
    37  H    3.083208   2.173624   1.095402   2.522566   3.079224
    38  H    2.546479   2.175064   1.095221   3.076649   2.526543
                   36         37         38
    36  H    0.000000
    37  H    1.768432   0.000000
    38  H    1.769196   1.768252   0.000000
 Stoichiometry    C14H19N2O2S(2)
 Framework group  C1[X(C14H19N2O2S)]
 Deg. of freedom   108
 Full point group                 C1      NOp   1
 Largest Abelian subgroup         C1      NOp   1
 Largest concise Abelian subgroup C1      NOp   1
                         Standard orientation:                         
 ---------------------------------------------------------------------
 Center     Atomic      Atomic             Coordinates (Angstroms)
 Number     Number       Type             X           Y           Z
 ---------------------------------------------------------------------
      1          6           0       -2.849334   -0.594906   -1.524093
      2          6           0       -1.635954   -0.305942   -0.862280
      3          6           0       -1.629469   -0.153043    0.557383
      4          6           0       -2.782788   -0.293642    1.329617
      5          6           0       -3.956515   -0.580706    0.647693
      6          6           0       -3.988943   -0.727312   -0.759411
      7          1           0       -2.857763   -0.714607   -2.601673
      8          1           0       -2.764510   -0.185593    2.409060
      9          1           0       -4.877838   -0.699748    1.208855
     10          1           0       -4.934848   -0.956272   -1.239064
     11          7           0       -0.344267    0.151382    0.899307
     12          7           0       -0.406283   -0.118754   -1.373090
     13          6           0        0.433568    0.040519   -0.287551
     14          6           0        0.108155    0.284101    2.269711
     15          1           0       -0.365776    1.158084    2.729887
     16          1           0       -0.131366   -0.619505    2.836586
     17          1           0        1.188983    0.408870    2.288609
     18         16           0        1.412122   -1.832507   -0.075900
     19          8           0        0.998036   -2.869478   -1.017430
     20          8           0        1.453903   -2.107435    1.369585
     21          6           0        3.026865   -1.142810   -0.520655
     22          6           0        2.965131    0.286316    0.003862
     23          1           0        3.104847   -1.185223   -1.609955
     24          1           0        3.791316   -1.767676   -0.054286
     25          6           0        1.662828    0.933645   -0.505543
     26          1           0        3.010187    0.278181    1.098755
     27          1           0        3.821500    0.865635   -0.353868
     28          6           0        1.449476    2.360255    0.006684
     29          1           0        1.739660    0.976117   -1.599564
     30          1           0        1.371389    2.362602    1.102042
     31          1           0        2.350067    2.941649   -0.234589
     32          6           0        0.225641    3.049969   -0.596631
     33          6           0        0.100433    4.497845   -0.130030
     34          1           0       -0.680368    2.493926   -0.327612
     35          1           0        0.293821    3.010812   -1.690723
     36          1           0       -0.778498    4.981409   -0.564587
     37          1           0        0.007339    4.551152    0.960107
     38          1           0        0.981681    5.081471   -0.416896
 ---------------------------------------------------------------------
 Rotational constants (GHZ):           0.4332250           0.3519795           0.2475749
 Standard basis: def2TZVP (5D, 7F)
 There are   804 symmetry adapted cartesian basis functions of A   symmetry.
 There are   709 symmetry adapted basis functions of A   symmetry.
   709 basis functions,  1139 primitive gaussians,   804 cartesian basis functions
    75 alpha electrons       74 beta electrons
       nuclear repulsion energy      1732.0235169011 Hartrees.
 NAtoms=   38 NActive=   38 NUniq=   38 SFac= 1.00D+00 NAtFMM=   60 NAOKFM=F Big=F
 Integral buffers will be    131072 words long.
 Raffenetti 2 integral format.
 Two-electron integral symmetry is turned on.
 ------------------------------------------------------------------------------
 Polarizable Continuum Model (PCM)
 =================================
 Model                : PCM.
 Atomic radii         : UFF (Universal Force Field).
 Polarization charges : Total charges.
 Charge compensation  : None.
 Solution method      : On-the-fly selection.
 Cavity type          : Scaled VdW (van der Waals Surface) (Alpha=1.100).
 Cavity algorithm     : GePol (No added spheres)
                        Default sphere list used, NSphG=   38.
                        Lebedev-Laikov grids with approx.  5.0 points / Ang**2.
                        Smoothing algorithm: York/Karplus (Gamma=1.0000).
                        Polarization charges: spherical gaussians, with
                                              point-specific exponents (IZeta= 3).
                        Self-potential: point-specific (ISelfS= 7).
                        Self-field    : sphere-specific E.n sum rule (ISelfD= 2).
 Solvent              : n,n-DiMethylFormamide, Eps=  37.219000 Eps(inf)=   2.046330
 ------------------------------------------------------------------------------
 One-electron integrals computed using PRISM.
   1 Symmetry operations used in ECPInt.
 ECPInt:  NShTT=   41328 NPrTT=  126240 LenC2=   37900 LenP2D=   83589.
 LDataN:  DoStor=T MaxTD1= 6 Len=  172
 Number of processors reduced to  36 by ecpmxn.
 NBasis=   709 RedAO= T EigKep=  8.39D-06  NBF=   709
 NBsUse=   709 1.00D-06 EigRej= -1.00D+00 NBFU=   709
 ExpMin= 9.52D-02 ExpMax= 6.07D+04 ExpMxC= 2.07D+03 IAcc=3 IRadAn=         5 AccDes= 0.00D+00
 Harris functional with IExCor= 1009 and IRadAn=       5 diagonalized for initial guess.
 HarFok:  IExCor= 1009 AccDes= 0.00D+00 IRadAn=         5 IDoV= 1 UseB2=F ITyADJ=14
 ICtDFT=  3500011 ScaDFX=  1.000000  1.000000  1.000000  1.000000
 FoFCou: FMM=F IPFlag=           0 FMFlag=      100000 FMFlg1=           0
         NFxFlg=           0 DoJE=T BraDBF=F KetDBF=T FulRan=T
         wScrn=  0.000000 ICntrl=       500 IOpCl=  0 I1Cent=   200000004 NGrid=           0
         NMat0=    1 NMatS0=      1 NMatT0=    0 NMatD0=    1 NMtDS0=    0 NMtDT0=    0
 Petite list used in FoFCou.
 Initial guess <Sx>= 0.0000 <Sy>= 0.0000 <Sz>= 0.5000 <S**2>= 0.7500 S= 0.5000
 Requested convergence on RMS density matrix=1.00D-08 within 128 cycles.
 Requested convergence on MAX density matrix=1.00D-06.
 Requested convergence on             energy=1.00D-06.
 No special actions if energy rises.
 Inv3:  Mode=1 IEnd=    20295603.
 Iteration    1 A*A^-1 deviation from unit magnitude is 3.77D-15 for    458.
 Iteration    1 A*A^-1 deviation from orthogonality  is 2.02D-15 for   2392    506.
 Iteration    1 A^-1*A deviation from unit magnitude is 3.77D-15 for    458.
 Iteration    1 A^-1*A deviation from orthogonality  is 2.17D-15 for   1961    764.
 Error on total polarization charges =  0.01618
 SCF Done:  E(UM062X) =  -1202.99723892     A.U. after   19 cycles
            NFock= 19  Conv=0.41D-08     -V/T= 2.0040
 <Sx>= 0.0000 <Sy>= 0.0000 <Sz>= 0.5000 <S**2>= 0.7732 S= 0.5116
 <L.S>=  0.00000000000    
 Annihilation of the first spin contaminant:
 S**2 before annihilation     0.7732,   after     0.7504

 **********************************************************************

            Population analysis using the SCF Density.

 **********************************************************************

 Orbital symmetries:
 Alpha Orbitals:
       Occupied  (A) (A) (A) (A) (A) (A) (A) (A) (A) (A) (A) (A)
                 (A) (A) (A) (A) (A) (A) (A) (A) (A) (A) (A) (A)
                 (A) (A) (A) (A) (A) (A) (A) (A) (A) (A) (A) (A)
                 (A) (A) (A) (A) (A) (A) (A) (A) (A) (A) (A) (A)
                 (A) (A) (A) (A) (A) (A) (A) (A) (A) (A) (A) (A)
                 (A) (A) (A) (A) (A) (A) (A) (A) (A) (A) (A) (A)
                 (A) (A) (A)
       Virtual   (A) (A) (A) (A) (A) (A) (A) (A) (A) (A) (A) (A)
                 (A) (A) (A) (A) (A) (A) (A) (A) (A) (A) (A) (A)
                 (A) (A) (A) (A) (A) (A) (A) (A) (A) (A) (A) (A)
                 (A) (A) (A) (A) (A) (A) (A) (A) (A) (A) (A) (A)
                 (A) (A) (A) (A) (A) (A) (A) (A) (A) (A) (A) (A)
                 (A) (A) (A) (A) (A) (A) (A) (A) (A) (A) (A) (A)
                 (A) (A) (A) (A) (A) (A) (A) (A) (A) (A) (A) (A)
                 (A) (A) (A) (A) (A) (A) (A) (A) (A) (A) (A) (A)
                 (A) (A) (A) (A) (A) (A) (A) (A) (A) (A) (A) (A)
                 (A) (A) (A) (A) (A) (A) (A) (A) (A) (A) (A) (A)
                 (A) (A) (A) (A) (A) (A) (A) (A) (A) (A) (A) (A)
                 (A) (A) (A) (A) (A) (A) (A) (A) (A) (A) (A) (A)
                 (A) (A) (A) (A) (A) (A) (A) (A) (A) (A) (A) (A)
                 (A) (A) (A) (A) (A) (A) (A) (A) (A) (A) (A) (A)
                 (A) (A) (A) (A) (A) (A) (A) (A) (A) (A) (A) (A)
                 (A) (A) (A) (A) (A) (A) (A) (A) (A) (A) (A) (A)
                 (A) (A) (A) (A) (A) (A) (A) (A) (A) (A) (A) (A)
                 (A) (A) (A) (A) (A) (A) (A) (A) (A) (A) (A) (A)
                 (A) (A) (A) (A) (A) (A) (A) (A) (A) (A) (A) (A)
                 (A) (A) (A) (A) (A) (A) (A) (A) (A) (A) (A) (A)
                 (A) (A) (A) (A) (A) (A) (A) (A) (A) (A) (A) (A)
                 (A) (A) (A) (A) (A) (A) (A) (A) (A) (A) (A) (A)
                 (A) (A) (A) (A) (A) (A) (A) (A) (A) (A) (A) (A)
                 (A) (A) (A) (A) (A) (A) (A) (A) (A) (A) (A) (A)
                 (A) (A) (A) (A) (A) (A) (A) (A) (A) (A) (A) (A)
                 (A) (A) (A) (A) (A) (A) (A) (A) (A) (A) (A) (A)
                 (A) (A) (A) (A) (A) (A) (A) (A) (A) (A) (A) (A)
                 (A) (A) (A) (A) (A) (A) (A) (A) (A) (A) (A) (A)
                 (A) (A) (A) (A) (A) (A) (A) (A) (A) (A) (A) (A)
                 (A) (A) (A) (A) (A) (A) (A) (A) (A) (A) (A) (A)
                 (A) (A) (A) (A) (A) (A) (A) (A) (A) (A) (A) (A)
                 (A) (A) (A) (A) (A) (A) (A) (A) (A) (A) (A) (A)
                 (A) (A) (A) (A) (A) (A) (A) (A) (A) (A) (A) (A)
                 (A) (A) (A) (A) (A) (A) (A) (A) (A) (A) (A) (A)
                 (A) (A) (A) (A) (A) (A) (A) (A) (A) (A) (A) (A)
                 (A) (A) (A) (A) (A) (A) (A) (A) (A) (A) (A) (A)
                 (A) (A) (A) (A) (A) (A) (A) (A) (A) (A) (A) (A)
                 (A) (A) (A) (A) (A) (A) (A) (A) (A) (A) (A) (A)
                 (A) (A) (A) (A) (A) (A) (A) (A) (A) (A) (A) (A)
                 (A) (A) (A) (A) (A) (A) (A) (A) (A) (A) (A) (A)
                 (A) (A) (A) (A) (A) (A) (A) (A) (A) (A) (A) (A)
                 (A) (A) (A) (A) (A) (A) (A) (A) (A) (A) (A) (A)
                 (A) (A) (A) (A) (A) (A) (A) (A) (A) (A) (A) (A)
                 (A) (A) (A) (A) (A) (A) (A) (A) (A) (A) (A) (A)
                 (A) (A) (A) (A) (A) (A) (A) (A) (A) (A) (A) (A)
                 (A) (A) (A) (A) (A) (A) (A) (A) (A) (A) (A) (A)
                 (A) (A) (A) (A) (A) (A) (A) (A) (A) (A) (A) (A)
                 (A) (A) (A) (A) (A) (A) (A) (A) (A) (A) (A) (A)
                 (A) (A) (A) (A) (A) (A) (A) (A) (A) (A) (A) (A)
                 (A) (A) (A) (A) (A) (A) (A) (A) (A) (A) (A) (A)
                 (A) (A) (A) (A) (A) (A) (A) (A) (A) (A) (A) (A)
                 (A) (A) (A) (A) (A) (A) (A) (A) (A) (A) (A) (A)
                 (A) (A) (A) (A) (A) (A) (A) (A) (A) (A)
 Beta  Orbitals:
       Occupied  (A) (A) (A) (A) (A) (A) (A) (A) (A) (A) (A) (A)
                 (A) (A) (A) (A) (A) (A) (A) (A) (A) (A) (A) (A)
                 (A) (A) (A) (A) (A) (A) (A) (A) (A) (A) (A) (A)
                 (A) (A) (A) (A) (A) (A) (A) (A) (A) (A) (A) (A)
                 (A) (A) (A) (A) (A) (A) (A) (A) (A) (A) (A) (A)
                 (A) (A) (A) (A) (A) (A) (A) (A) (A) (A) (A) (A)
                 (A) (A)
       Virtual   (A) (A) (A) (A) (A) (A) (A) (A) (A) (A) (A) (A)
                 (A) (A) (A) (A) (A) (A) (A) (A) (A) (A) (A) (A)
                 (A) (A) (A) (A) (A) (A) (A) (A) (A) (A) (A) (A)
                 (A) (A) (A) (A) (A) (A) (A) (A) (A) (A) (A) (A)
                 (A) (A) (A) (A) (A) (A) (A) (A) (A) (A) (A) (A)
                 (A) (A) (A) (A) (A) (A) (A) (A) (A) (A) (A) (A)
                 (A) (A) (A) (A) (A) (A) (A) (A) (A) (A) (A) (A)
                 (A) (A) (A) (A) (A) (A) (A) (A) (A) (A) (A) (A)
                 (A) (A) (A) (A) (A) (A) (A) (A) (A) (A) (A) (A)
                 (A) (A) (A) (A) (A) (A) (A) (A) (A) (A) (A) (A)
                 (A) (A) (A) (A) (A) (A) (A) (A) (A) (A) (A) (A)
                 (A) (A) (A) (A) (A) (A) (A) (A) (A) (A) (A) (A)
                 (A) (A) (A) (A) (A) (A) (A) (A) (A) (A) (A) (A)
                 (A) (A) (A) (A) (A) (A) (A) (A) (A) (A) (A) (A)
                 (A) (A) (A) (A) (A) (A) (A) (A) (A) (A) (A) (A)
                 (A) (A) (A) (A) (A) (A) (A) (A) (A) (A) (A) (A)
                 (A) (A) (A) (A) (A) (A) (A) (A) (A) (A) (A) (A)
                 (A) (A) (A) (A) (A) (A) (A) (A) (A) (A) (A) (A)
                 (A) (A) (A) (A) (A) (A) (A) (A) (A) (A) (A) (A)
                 (A) (A) (A) (A) (A) (A) (A) (A) (A) (A) (A) (A)
                 (A) (A) (A) (A) (A) (A) (A) (A) (A) (A) (A) (A)
                 (A) (A) (A) (A) (A) (A) (A) (A) (A) (A) (A) (A)
                 (A) (A) (A) (A) (A) (A) (A) (A) (A) (A) (A) (A)
                 (A) (A) (A) (A) (A) (A) (A) (A) (A) (A) (A) (A)
                 (A) (A) (A) (A) (A) (A) (A) (A) (A) (A) (A) (A)
                 (A) (A) (A) (A) (A) (A) (A) (A) (A) (A) (A) (A)
                 (A) (A) (A) (A) (A) (A) (A) (A) (A) (A) (A) (A)
                 (A) (A) (A) (A) (A) (A) (A) (A) (A) (A) (A) (A)
                 (A) (A) (A) (A) (A) (A) (A) (A) (A) (A) (A) (A)
                 (A) (A) (A) (A) (A) (A) (A) (A) (A) (A) (A) (A)
                 (A) (A) (A) (A) (A) (A) (A) (A) (A) (A) (A) (A)
                 (A) (A) (A) (A) (A) (A) (A) (A) (A) (A) (A) (A)
                 (A) (A) (A) (A) (A) (A) (A) (A) (A) (A) (A) (A)
                 (A) (A) (A) (A) (A) (A) (A) (A) (A) (A) (A) (A)
                 (A) (A) (A) (A) (A) (A) (A) (A) (A) (A) (A) (A)
                 (A) (A) (A) (A) (A) (A) (A) (A) (A) (A) (A) (A)
                 (A) (A) (A) (A) (A) (A) (A) (A) (A) (A) (A) (A)
                 (A) (A) (A) (A) (A) (A) (A) (A) (A) (A) (A) (A)
                 (A) (A) (A) (A) (A) (A) (A) (A) (A) (A) (A) (A)
                 (A) (A) (A) (A) (A) (A) (A) (A) (A) (A) (A) (A)
                 (A) (A) (A) (A) (A) (A) (A) (A) (A) (A) (A) (A)
                 (A) (A) (A) (A) (A) (A) (A) (A) (A) (A) (A) (A)
                 (A) (A) (A) (A) (A) (A) (A) (A) (A) (A) (A) (A)
                 (A) (A) (A) (A) (A) (A) (A) (A) (A) (A) (A) (A)
                 (A) (A) (A) (A) (A) (A) (A) (A) (A) (A) (A) (A)
                 (A) (A) (A) (A) (A) (A) (A) (A) (A) (A) (A) (A)
                 (A) (A) (A) (A) (A) (A) (A) (A) (A) (A) (A) (A)
                 (A) (A) (A) (A) (A) (A) (A) (A) (A) (A) (A) (A)
                 (A) (A) (A) (A) (A) (A) (A) (A) (A) (A) (A) (A)
                 (A) (A) (A) (A) (A) (A) (A) (A) (A) (A) (A) (A)
                 (A) (A) (A) (A) (A) (A) (A) (A) (A) (A) (A) (A)
                 (A) (A) (A) (A) (A) (A) (A) (A) (A) (A) (A) (A)
                 (A) (A) (A) (A) (A) (A) (A) (A) (A) (A) (A)
 The electronic state is 2-A.
 Alpha  occ. eigenvalues --  -90.07785 -19.63820 -19.63405 -14.81121 -14.75521
 Alpha  occ. eigenvalues --  -10.64772 -10.59812 -10.58371 -10.58064 -10.58048
 Alpha  occ. eigenvalues --  -10.56782 -10.56043 -10.55895 -10.55596 -10.55429
 Alpha  occ. eigenvalues --  -10.55126 -10.54142 -10.53243 -10.52240  -8.41231
 Alpha  occ. eigenvalues --   -6.33460  -6.33189  -6.33162  -1.22797  -1.14737
 Alpha  occ. eigenvalues --   -1.13042  -1.01885  -0.97189  -0.94584  -0.89608
 Alpha  occ. eigenvalues --   -0.86239  -0.85442  -0.82810  -0.81787  -0.76557
 Alpha  occ. eigenvalues --   -0.75335  -0.70345  -0.69411  -0.68020  -0.67468
 Alpha  occ. eigenvalues --   -0.65788  -0.60792  -0.59843  -0.58982  -0.58266
 Alpha  occ. eigenvalues --   -0.55852  -0.55517  -0.54222  -0.52785  -0.52237
 Alpha  occ. eigenvalues --   -0.51604  -0.51205  -0.50867  -0.49868  -0.49271
 Alpha  occ. eigenvalues --   -0.48152  -0.47329  -0.46862  -0.45047  -0.44315
 Alpha  occ. eigenvalues --   -0.43562  -0.43033  -0.42386  -0.42044  -0.41285
 Alpha  occ. eigenvalues --   -0.40239  -0.39938  -0.39784  -0.39127  -0.38311
 Alpha  occ. eigenvalues --   -0.38200  -0.36706  -0.33235  -0.30121  -0.23490
 Alpha virt. eigenvalues --    0.00537   0.02615   0.05548   0.05805   0.07238
 Alpha virt. eigenvalues --    0.07545   0.08050   0.09145   0.09345   0.10424
 Alpha virt. eigenvalues --    0.10974   0.11311   0.11765   0.12304   0.12834
 Alpha virt. eigenvalues --    0.13353   0.13728   0.13924   0.14505   0.15040
 Alpha virt. eigenvalues --    0.15450   0.15772   0.17085   0.17616   0.17929
 Alpha virt. eigenvalues --    0.18601   0.18733   0.19148   0.19880   0.20007
 Alpha virt. eigenvalues --    0.21251   0.21867   0.22193   0.22734   0.23326
 Alpha virt. eigenvalues --    0.23932   0.24129   0.24940   0.25068   0.25424
 Alpha virt. eigenvalues --    0.25856   0.26753   0.26914   0.27958   0.28135
 Alpha virt. eigenvalues --    0.28577   0.29887   0.30196   0.30932   0.31392
 Alpha virt. eigenvalues --    0.31841   0.32591   0.32974   0.33293   0.34039
 Alpha virt. eigenvalues --    0.34429   0.35635   0.36172   0.36487   0.36787
 Alpha virt. eigenvalues --    0.37734   0.38165   0.38635   0.39395   0.39649
 Alpha virt. eigenvalues --    0.40191   0.40713   0.40931   0.41719   0.42532
 Alpha virt. eigenvalues --    0.43154   0.43310   0.43558   0.43781   0.44372
 Alpha virt. eigenvalues --    0.44742   0.45152   0.45478   0.45692   0.45901
 Alpha virt. eigenvalues --    0.46375   0.47105   0.47812   0.48080   0.48617
 Alpha virt. eigenvalues --    0.49149   0.49300   0.49465   0.49688   0.50207
 Alpha virt. eigenvalues --    0.50549   0.50609   0.51579   0.51733   0.52184
 Alpha virt. eigenvalues --    0.52636   0.53340   0.53796   0.54258   0.54792
 Alpha virt. eigenvalues --    0.55361   0.55560   0.56135   0.56467   0.56998
 Alpha virt. eigenvalues --    0.58050   0.58641   0.59016   0.60826   0.60956
 Alpha virt. eigenvalues --    0.61515   0.62651   0.63193   0.64233   0.65714
 Alpha virt. eigenvalues --    0.66340   0.66851   0.66920   0.68381   0.69138
 Alpha virt. eigenvalues --    0.69883   0.70474   0.71731   0.71945   0.72954
 Alpha virt. eigenvalues --    0.74143   0.74873   0.75524   0.75944   0.76259
 Alpha virt. eigenvalues --    0.77139   0.77972   0.79018   0.79656   0.80397
 Alpha virt. eigenvalues --    0.81301   0.82293   0.83227   0.83880   0.85064
 Alpha virt. eigenvalues --    0.86122   0.86261   0.87749   0.88146   0.88590
 Alpha virt. eigenvalues --    0.88998   0.90096   0.90285   0.91579   0.92570
 Alpha virt. eigenvalues --    0.93308   0.93637   0.94083   0.95694   0.96345
 Alpha virt. eigenvalues --    0.96619   0.97405   0.98078   0.99031   0.99938
 Alpha virt. eigenvalues --    1.01263   1.01475   1.02867   1.03659   1.04082
 Alpha virt. eigenvalues --    1.05220   1.06636   1.07116   1.07657   1.08691
 Alpha virt. eigenvalues --    1.09374   1.10483   1.10946   1.12112   1.12587
 Alpha virt. eigenvalues --    1.13969   1.14894   1.15060   1.15960   1.16761
 Alpha virt. eigenvalues --    1.17366   1.18463   1.19264   1.19703   1.20121
 Alpha virt. eigenvalues --    1.21478   1.22966   1.24489   1.24661   1.26499
 Alpha virt. eigenvalues --    1.27446   1.27581   1.28805   1.29997   1.30669
 Alpha virt. eigenvalues --    1.31101   1.31302   1.33096   1.33992   1.35337
 Alpha virt. eigenvalues --    1.36369   1.37203   1.38982   1.40136   1.41144
 Alpha virt. eigenvalues --    1.42593   1.44080   1.44245   1.45073   1.46517
 Alpha virt. eigenvalues --    1.47479   1.47720   1.48501   1.49676   1.50478
 Alpha virt. eigenvalues --    1.51550   1.52204   1.52419   1.54204   1.54511
 Alpha virt. eigenvalues --    1.56022   1.56389   1.57241   1.57972   1.58392
 Alpha virt. eigenvalues --    1.58947   1.59559   1.60489   1.61133   1.61354
 Alpha virt. eigenvalues --    1.62030   1.62137   1.62980   1.63434   1.64514
 Alpha virt. eigenvalues --    1.65218   1.65939   1.66241   1.67535   1.67751
 Alpha virt. eigenvalues --    1.68277   1.68509   1.68944   1.70545   1.70774
 Alpha virt. eigenvalues --    1.71236   1.72787   1.73368   1.73712   1.74723
 Alpha virt. eigenvalues --    1.75849   1.76526   1.77232   1.77736   1.79050
 Alpha virt. eigenvalues --    1.79987   1.80281   1.81127   1.81883   1.82201
 Alpha virt. eigenvalues --    1.83621   1.84387   1.85650   1.86609   1.87856
 Alpha virt. eigenvalues --    1.88460   1.89149   1.89517   1.90486   1.92036
 Alpha virt. eigenvalues --    1.93170   1.93804   1.95493   1.96546   1.97113
 Alpha virt. eigenvalues --    1.98193   1.99319   2.00104   2.00494   2.02150
 Alpha virt. eigenvalues --    2.02846   2.03669   2.04565   2.06070   2.06697
 Alpha virt. eigenvalues --    2.07571   2.09681   2.10655   2.12157   2.12873
 Alpha virt. eigenvalues --    2.13609   2.14934   2.15567   2.16356   2.18309
 Alpha virt. eigenvalues --    2.18729   2.19873   2.20261   2.21798   2.22362
 Alpha virt. eigenvalues --    2.22983   2.24573   2.24916   2.25352   2.25939
 Alpha virt. eigenvalues --    2.26838   2.27440   2.28416   2.30346   2.30928
 Alpha virt. eigenvalues --    2.32657   2.33682   2.33952   2.34934   2.35496
 Alpha virt. eigenvalues --    2.36382   2.37023   2.37748   2.38605   2.40890
 Alpha virt. eigenvalues --    2.41655   2.41908   2.42129   2.43196   2.43661
 Alpha virt. eigenvalues --    2.44989   2.45756   2.47092   2.47285   2.47767
 Alpha virt. eigenvalues --    2.47811   2.50667   2.50941   2.51643   2.52702
 Alpha virt. eigenvalues --    2.53954   2.54523   2.55502   2.56058   2.56632
 Alpha virt. eigenvalues --    2.57222   2.57777   2.58570   2.59467   2.59954
 Alpha virt. eigenvalues --    2.60212   2.61222   2.61765   2.62070   2.62317
 Alpha virt. eigenvalues --    2.62755   2.64371   2.64880   2.65116   2.66013
 Alpha virt. eigenvalues --    2.66998   2.67421   2.67959   2.68975   2.69556
 Alpha virt. eigenvalues --    2.69735   2.70987   2.71895   2.72092   2.72441
 Alpha virt. eigenvalues --    2.73619   2.74068   2.75174   2.75703   2.76716
 Alpha virt. eigenvalues --    2.77484   2.77567   2.79044   2.79751   2.80295
 Alpha virt. eigenvalues --    2.80464   2.82232   2.82815   2.83870   2.85253
 Alpha virt. eigenvalues --    2.86106   2.87132   2.87459   2.88862   2.90595
 Alpha virt. eigenvalues --    2.92783   2.93858   2.94146   2.95201   2.96733
 Alpha virt. eigenvalues --    2.97561   2.98713   2.99409   3.00328   3.01187
 Alpha virt. eigenvalues --    3.01534   3.02446   3.04633   3.05138   3.07344
 Alpha virt. eigenvalues --    3.08017   3.08725   3.09789   3.10715   3.11631
 Alpha virt. eigenvalues --    3.11935   3.12434   3.13137   3.14038   3.14389
 Alpha virt. eigenvalues --    3.14626   3.15295   3.16123   3.17593   3.18028
 Alpha virt. eigenvalues --    3.18826   3.19287   3.19960   3.20262   3.22124
 Alpha virt. eigenvalues --    3.22191   3.22695   3.24208   3.24800   3.25383
 Alpha virt. eigenvalues --    3.26496   3.26950   3.27713   3.28188   3.28759
 Alpha virt. eigenvalues --    3.29354   3.30266   3.30968   3.31798   3.32725
 Alpha virt. eigenvalues --    3.32870   3.33630   3.35009   3.35752   3.36010
 Alpha virt. eigenvalues --    3.36350   3.36689   3.37826   3.38138   3.38600
 Alpha virt. eigenvalues --    3.39161   3.39914   3.41093   3.42134   3.42587
 Alpha virt. eigenvalues --    3.43747   3.44290   3.45185   3.46670   3.46938
 Alpha virt. eigenvalues --    3.47664   3.48582   3.49592   3.49994   3.50440
 Alpha virt. eigenvalues --    3.51663   3.52719   3.53936   3.54507   3.55137
 Alpha virt. eigenvalues --    3.56780   3.56903   3.57716   3.58677   3.59215
 Alpha virt. eigenvalues --    3.60238   3.60493   3.61082   3.62373   3.63382
 Alpha virt. eigenvalues --    3.64056   3.65035   3.66093   3.67769   3.68967
 Alpha virt. eigenvalues --    3.69836   3.71303   3.72833   3.73737   3.74697
 Alpha virt. eigenvalues --    3.76684   3.77857   3.81454   3.83541   3.84597
 Alpha virt. eigenvalues --    3.85466   3.86314   3.88541   3.89851   3.90828
 Alpha virt. eigenvalues --    3.90996   3.92605   3.93561   3.94145   3.94722
 Alpha virt. eigenvalues --    3.96842   3.98090   3.99386   4.01041   4.01913
 Alpha virt. eigenvalues --    4.02918   4.04441   4.06688   4.07236   4.08607
 Alpha virt. eigenvalues --    4.10555   4.11172   4.11637   4.12193   4.14091
 Alpha virt. eigenvalues --    4.15182   4.16371   4.17579   4.18792   4.20348
 Alpha virt. eigenvalues --    4.21508   4.22049   4.24135   4.26857   4.27457
 Alpha virt. eigenvalues --    4.28481   4.30744   4.31652   4.33753   4.34835
 Alpha virt. eigenvalues --    4.36645   4.38090   4.38755   4.40462   4.41840
 Alpha virt. eigenvalues --    4.44399   4.46119   4.48996   4.51649   4.51811
 Alpha virt. eigenvalues --    4.54905   4.56291   4.57137   4.60740   4.62627
 Alpha virt. eigenvalues --    4.64026   4.65529   4.68019   4.68713   4.70980
 Alpha virt. eigenvalues --    4.71908   4.73354   4.79256   4.81564   4.82799
 Alpha virt. eigenvalues --    4.84052   4.86764   4.87171   4.89253   4.93874
 Alpha virt. eigenvalues --    4.97130   4.99167   5.03090   5.04546   5.06593
 Alpha virt. eigenvalues --    5.08995   5.12493   5.12773   5.15936   5.16249
 Alpha virt. eigenvalues --    5.16674   5.17305   5.17934   5.18284   5.19214
 Alpha virt. eigenvalues --    5.22167   5.23768   5.24987   5.25360   5.26505
 Alpha virt. eigenvalues --    5.29273   5.30150   5.31851   5.36171   5.42137
 Alpha virt. eigenvalues --    5.43458   5.47021   5.47845   5.50357   5.51325
 Alpha virt. eigenvalues --    5.56068   5.57790   5.59808   5.63750   5.70683
 Alpha virt. eigenvalues --    5.71946   5.73592   5.76870   5.85209   5.94656
 Alpha virt. eigenvalues --    6.07748   6.23940   6.30822   6.33052   6.36942
 Alpha virt. eigenvalues --    6.44842   6.66253   6.75187   6.75676   6.77867
 Alpha virt. eigenvalues --    6.86014   6.92334   9.40709   9.59916   9.74124
 Alpha virt. eigenvalues --   21.78491  22.41058  22.43553  22.48133  22.59332
 Alpha virt. eigenvalues --   22.63840  22.64911  22.68012  22.69286  22.74506
 Alpha virt. eigenvalues --   22.84427  22.94822  22.99826  23.33762  23.60635
 Alpha virt. eigenvalues --   32.77766  33.19161  43.84716  44.09097
  Beta  occ. eigenvalues --  -90.07520 -19.63661 -19.63232 -14.80946 -14.75131
  Beta  occ. eigenvalues --  -10.64872 -10.59733 -10.58413 -10.58073 -10.57998
  Beta  occ. eigenvalues --  -10.56750 -10.56048 -10.55804 -10.55631 -10.55371
  Beta  occ. eigenvalues --  -10.55142 -10.54148 -10.53240 -10.52239  -8.41081
  Beta  occ. eigenvalues --   -6.33102  -6.33086  -6.32830  -1.22195  -1.14132
  Beta  occ. eigenvalues --   -1.12440  -1.01006  -0.96934  -0.94319  -0.89489
  Beta  occ. eigenvalues --   -0.86054  -0.85225  -0.82471  -0.81526  -0.76150
  Beta  occ. eigenvalues --   -0.74990  -0.70068  -0.68877  -0.67519  -0.67325
  Beta  occ. eigenvalues --   -0.65575  -0.60176  -0.59536  -0.58658  -0.57990
  Beta  occ. eigenvalues --   -0.55463  -0.55040  -0.53787  -0.52582  -0.52118
  Beta  occ. eigenvalues --   -0.51014  -0.50912  -0.50615  -0.49501  -0.48580
  Beta  occ. eigenvalues --   -0.48057  -0.47144  -0.46566  -0.44942  -0.44166
  Beta  occ. eigenvalues --   -0.43278  -0.42657  -0.41527  -0.41183  -0.40631
  Beta  occ. eigenvalues --   -0.39888  -0.39569  -0.39520  -0.38719  -0.37994
  Beta  occ. eigenvalues --   -0.36935  -0.35741  -0.31070  -0.28598
  Beta virt. eigenvalues --   -0.10202   0.01801   0.03777   0.05573   0.06329
  Beta virt. eigenvalues --    0.07470   0.07698   0.08281   0.09188   0.09616
  Beta virt. eigenvalues --    0.10525   0.11069   0.11637   0.11876   0.12327
  Beta virt. eigenvalues --    0.12933   0.13330   0.13763   0.14006   0.14505
  Beta virt. eigenvalues --    0.15076   0.15457   0.15779   0.17103   0.17577
  Beta virt. eigenvalues --    0.17946   0.18613   0.18836   0.19130   0.19862
  Beta virt. eigenvalues --    0.20477   0.21235   0.21836   0.22159   0.22724
  Beta virt. eigenvalues --    0.23285   0.24003   0.24119   0.25044   0.25136
  Beta virt. eigenvalues --    0.25388   0.25809   0.26704   0.27017   0.28017
  Beta virt. eigenvalues --    0.28180   0.28695   0.29927   0.30226   0.31012
  Beta virt. eigenvalues --    0.31440   0.31870   0.32654   0.33033   0.33296
  Beta virt. eigenvalues --    0.34124   0.34504   0.35638   0.36159   0.36507
  Beta virt. eigenvalues --    0.36781   0.37792   0.38139   0.38696   0.39470
  Beta virt. eigenvalues --    0.39690   0.40235   0.40879   0.41007   0.41817
  Beta virt. eigenvalues --    0.42546   0.43244   0.43417   0.43615   0.43830
  Beta virt. eigenvalues --    0.44462   0.44732   0.45236   0.45540   0.45683
  Beta virt. eigenvalues --    0.46052   0.46459   0.47115   0.47858   0.48122
  Beta virt. eigenvalues --    0.48642   0.49153   0.49282   0.49479   0.49695
  Beta virt. eigenvalues --    0.50252   0.50603   0.50748   0.51564   0.51804
  Beta virt. eigenvalues --    0.52221   0.52724   0.53374   0.53896   0.54316
  Beta virt. eigenvalues --    0.54962   0.55429   0.55593   0.56249   0.56558
  Beta virt. eigenvalues --    0.57029   0.58160   0.58685   0.59137   0.60893
  Beta virt. eigenvalues --    0.61143   0.61570   0.62786   0.63221   0.64246
  Beta virt. eigenvalues --    0.65760   0.66289   0.66845   0.66999   0.68454
  Beta virt. eigenvalues --    0.69282   0.70092   0.70498   0.71743   0.72046
  Beta virt. eigenvalues --    0.73226   0.74218   0.74920   0.75553   0.75997
  Beta virt. eigenvalues --    0.76446   0.77230   0.78164   0.79040   0.79796
  Beta virt. eigenvalues --    0.80435   0.81358   0.82473   0.83327   0.84060
  Beta virt. eigenvalues --    0.85206   0.86240   0.86390   0.87905   0.88262
  Beta virt. eigenvalues --    0.88769   0.89114   0.90193   0.90336   0.91682
  Beta virt. eigenvalues --    0.92627   0.93370   0.93685   0.94275   0.95821
  Beta virt. eigenvalues --    0.96419   0.96717   0.97456   0.98240   0.99113
  Beta virt. eigenvalues --    1.00049   1.01322   1.01520   1.02928   1.03739
  Beta virt. eigenvalues --    1.04177   1.05303   1.06698   1.07156   1.07695
  Beta virt. eigenvalues --    1.08761   1.09455   1.10522   1.11034   1.12192
  Beta virt. eigenvalues --    1.12669   1.14074   1.14946   1.15134   1.16097
  Beta virt. eigenvalues --    1.16825   1.17469   1.18541   1.19346   1.19804
  Beta virt. eigenvalues --    1.20218   1.21554   1.23067   1.24526   1.24807
  Beta virt. eigenvalues --    1.26586   1.27508   1.27711   1.28931   1.30204
  Beta virt. eigenvalues --    1.30739   1.31157   1.31372   1.33180   1.34065
  Beta virt. eigenvalues --    1.35501   1.36602   1.37357   1.39063   1.40251
  Beta virt. eigenvalues --    1.41256   1.42686   1.44200   1.44386   1.45196
  Beta virt. eigenvalues --    1.46775   1.47620   1.47852   1.48697   1.50080
  Beta virt. eigenvalues --    1.50689   1.51727   1.52585   1.52729   1.54426
  Beta virt. eigenvalues --    1.54860   1.56218   1.56571   1.57417   1.58166
  Beta virt. eigenvalues --    1.58426   1.59051   1.59643   1.60591   1.61272
  Beta virt. eigenvalues --    1.61607   1.62147   1.62285   1.63037   1.63591
  Beta virt. eigenvalues --    1.64658   1.65286   1.66024   1.66352   1.67767
  Beta virt. eigenvalues --    1.67980   1.68468   1.68845   1.69383   1.70731
  Beta virt. eigenvalues --    1.71012   1.71478   1.73079   1.73547   1.73880
  Beta virt. eigenvalues --    1.74825   1.76038   1.76774   1.77453   1.77977
  Beta virt. eigenvalues --    1.79327   1.80186   1.80458   1.81289   1.82021
  Beta virt. eigenvalues --    1.82505   1.83787   1.84541   1.85974   1.86758
  Beta virt. eigenvalues --    1.88107   1.88545   1.89617   1.89708   1.90821
  Beta virt. eigenvalues --    1.92082   1.93342   1.93912   1.95640   1.96622
  Beta virt. eigenvalues --    1.97323   1.98249   1.99426   2.00408   2.00656
  Beta virt. eigenvalues --    2.02249   2.03000   2.03862   2.04757   2.06266
  Beta virt. eigenvalues --    2.06818   2.07769   2.09740   2.10819   2.12288
  Beta virt. eigenvalues --    2.13129   2.13679   2.15023   2.15676   2.16498
  Beta virt. eigenvalues --    2.18431   2.18904   2.20058   2.20432   2.21907
  Beta virt. eigenvalues --    2.22582   2.23253   2.24774   2.25076   2.25556
  Beta virt. eigenvalues --    2.26336   2.26989   2.27778   2.28667   2.30609
  Beta virt. eigenvalues --    2.31034   2.32771   2.33831   2.34246   2.35125
  Beta virt. eigenvalues --    2.35812   2.36656   2.37219   2.37950   2.38722
  Beta virt. eigenvalues --    2.41024   2.41830   2.42047   2.42541   2.43318
  Beta virt. eigenvalues --    2.43866   2.45219   2.45871   2.47322   2.47390
  Beta virt. eigenvalues --    2.47918   2.47998   2.50878   2.51130   2.51937
  Beta virt. eigenvalues --    2.52823   2.54068   2.54654   2.55684   2.56185
  Beta virt. eigenvalues --    2.56777   2.57478   2.57923   2.58751   2.59536
  Beta virt. eigenvalues --    2.60107   2.60306   2.61279   2.62045   2.62333
  Beta virt. eigenvalues --    2.62454   2.62977   2.64582   2.65110   2.65322
  Beta virt. eigenvalues --    2.66367   2.67333   2.67719   2.68169   2.69271
  Beta virt. eigenvalues --    2.69879   2.70086   2.71168   2.72199   2.72384
  Beta virt. eigenvalues --    2.72784   2.73933   2.74442   2.75362   2.76147
  Beta virt. eigenvalues --    2.76910   2.77767   2.77854   2.79213   2.79954
  Beta virt. eigenvalues --    2.80580   2.80892   2.82553   2.83177   2.84325
  Beta virt. eigenvalues --    2.85541   2.86264   2.87367   2.87747   2.89095
  Beta virt. eigenvalues --    2.90909   2.92991   2.94054   2.94496   2.95494
  Beta virt. eigenvalues --    2.96949   2.97816   2.98989   2.99622   3.00659
  Beta virt. eigenvalues --    3.01363   3.01700   3.02607   3.05081   3.05261
  Beta virt. eigenvalues --    3.07446   3.08260   3.08958   3.10030   3.10897
  Beta virt. eigenvalues --    3.11763   3.12242   3.12747   3.13398   3.14289
  Beta virt. eigenvalues --    3.14639   3.15093   3.15484   3.16330   3.17832
  Beta virt. eigenvalues --    3.18167   3.19005   3.19416   3.20109   3.20474
  Beta virt. eigenvalues --    3.22303   3.22402   3.22872   3.24427   3.25012
  Beta virt. eigenvalues --    3.25536   3.26631   3.27047   3.27886   3.28289
  Beta virt. eigenvalues --    3.29019   3.29661   3.30383   3.31127   3.31958
  Beta virt. eigenvalues --    3.32880   3.33038   3.33722   3.35217   3.36018
  Beta virt. eigenvalues --    3.36213   3.36783   3.36849   3.38105   3.38445
  Beta virt. eigenvalues --    3.38805   3.39310   3.40408   3.41410   3.42380
  Beta virt. eigenvalues --    3.42827   3.43868   3.44566   3.45367   3.46835
  Beta virt. eigenvalues --    3.47170   3.47738   3.48782   3.49707   3.50214
  Beta virt. eigenvalues --    3.50629   3.51969   3.52891   3.54181   3.54753
  Beta virt. eigenvalues --    3.55380   3.56983   3.57108   3.57826   3.58742
  Beta virt. eigenvalues --    3.59370   3.60642   3.60729   3.61205   3.62448
  Beta virt. eigenvalues --    3.63546   3.64156   3.65195   3.66408   3.67771
  Beta virt. eigenvalues --    3.69266   3.70021   3.71470   3.73006   3.74050
  Beta virt. eigenvalues --    3.74837   3.76863   3.77960   3.81626   3.83476
  Beta virt. eigenvalues --    3.84600   3.85576   3.86420   3.88631   3.89868
  Beta virt. eigenvalues --    3.91120   3.91342   3.92706   3.93591   3.94632
  Beta virt. eigenvalues --    3.95017   3.96995   3.98174   3.99535   4.01223
  Beta virt. eigenvalues --    4.02190   4.03277   4.04695   4.06904   4.07709
  Beta virt. eigenvalues --    4.09254   4.10990   4.11593   4.12081   4.12683
  Beta virt. eigenvalues --    4.14428   4.15833   4.16876   4.18016   4.18971
  Beta virt. eigenvalues --    4.20711   4.21746   4.22255   4.24540   4.27054
  Beta virt. eigenvalues --    4.27742   4.28851   4.30872   4.31872   4.33877
  Beta virt. eigenvalues --    4.34969   4.37157   4.38272   4.39435   4.40710
  Beta virt. eigenvalues --    4.42094   4.44612   4.46333   4.49296   4.51948
  Beta virt. eigenvalues --    4.52427   4.55310   4.56384   4.57208   4.60970
  Beta virt. eigenvalues --    4.62751   4.64491   4.65825   4.68318   4.69236
  Beta virt. eigenvalues --    4.71445   4.73268   4.74251   4.80531   4.81960
  Beta virt. eigenvalues --    4.84183   4.84708   4.87513   4.88905   4.89782
  Beta virt. eigenvalues --    4.94563   4.98718   4.99848   5.03713   5.05684
  Beta virt. eigenvalues --    5.07403   5.09296   5.13408   5.13788   5.16046
  Beta virt. eigenvalues --    5.16524   5.16911   5.17451   5.18179   5.18711
  Beta virt. eigenvalues --    5.19719   5.22370   5.24337   5.25477   5.26191
  Beta virt. eigenvalues --    5.27372   5.29361   5.30323   5.32031   5.37316
  Beta virt. eigenvalues --    5.42814   5.44502   5.47651   5.48507   5.50986
  Beta virt. eigenvalues --    5.51324   5.56439   5.58273   5.59879   5.63916
  Beta virt. eigenvalues --    5.71098   5.71999   5.73606   5.77116   5.85149
  Beta virt. eigenvalues --    5.94790   6.07791   6.24021   6.31328   6.33589
  Beta virt. eigenvalues --    6.37489   6.45385   6.66768   6.75368   6.76194
  Beta virt. eigenvalues --    6.78073   6.86347   6.92616   9.41876   9.60377
  Beta virt. eigenvalues --    9.74433  21.78750  22.41154  22.43559  22.48200
  Beta virt. eigenvalues --   22.59331  22.63843  22.64955  22.68006  22.69435
  Beta virt. eigenvalues --   22.74576  22.84460  22.94776  22.99969  23.33679
  Beta virt. eigenvalues --   23.60856  32.77981  33.19146  43.84679  44.09061
          Condensed to atoms (all electrons):
               1          2          3          4          5          6
     1  C    5.249580   0.238951   0.158592  -0.185112   0.040857   0.441203
     2  C    0.238951   5.210335   0.103178   0.132125  -0.120522   0.031028
     3  C    0.158592   0.103178   5.549191   0.156984   0.032374  -0.157824
     4  C   -0.185112   0.132125   0.156984   5.366392   0.420257   0.048937
     5  C    0.040857  -0.120522   0.032374   0.420257   5.005031   0.408713
     6  C    0.441203   0.031028  -0.157824   0.048937   0.408713   5.018256
     7  H    0.426944  -0.062651   0.023244  -0.006761   0.010010  -0.041293
     8  H    0.000822   0.001758  -0.012169   0.382379  -0.008003   0.000613
     9  H    0.005798  -0.001508   0.010509  -0.040816   0.422198  -0.038577
    10  H   -0.046554   0.013451  -0.003495   0.008635  -0.044039   0.429692
    11  N    0.030827  -0.122181   0.425837  -0.098694   0.007423  -0.003808
    12  N   -0.061417   0.517072  -0.130167   0.043676  -0.008241   0.012550
    13  C   -0.032031  -0.091900  -0.226427   0.034430  -0.009602   0.006491
    14  C    0.001102   0.012488  -0.050295  -0.017257  -0.000123  -0.000624
    15  H   -0.000007  -0.000902  -0.005322  -0.001146   0.000117  -0.000066
    16  H    0.000129   0.001976  -0.004478  -0.003488  -0.000068  -0.000131
    17  H   -0.000044  -0.001218   0.007277   0.001629   0.000005   0.000018
    18  S    0.001772   0.001423  -0.005980   0.001955  -0.000236  -0.000029
    19  O    0.002143   0.013853  -0.001172  -0.000791   0.000187  -0.000394
    20  O   -0.000407  -0.007092   0.018649   0.000955  -0.000049   0.000008
    21  C    0.000309   0.004604   0.002918  -0.000281   0.000024  -0.000038
    22  C   -0.000158  -0.005193  -0.002151   0.000160  -0.000011   0.000010
    23  H    0.000018   0.000221  -0.000395  -0.000005   0.000000  -0.000001
    24  H    0.000004  -0.000027  -0.000143   0.000002  -0.000000   0.000000
    25  C   -0.002658   0.001784   0.016573   0.000162   0.000112   0.000056
    26  H    0.000005   0.000114  -0.000519   0.000005   0.000000  -0.000000
    27  H    0.000002   0.000149   0.000072  -0.000002   0.000000  -0.000000
    28  C   -0.000081  -0.002876  -0.009334  -0.001055  -0.000090   0.000111
    29  H    0.000723   0.002797   0.000223  -0.000264   0.000042  -0.000073
    30  H    0.000077   0.000358   0.001067  -0.000061   0.000023  -0.000013
    31  H   -0.000006  -0.000143   0.000036   0.000009  -0.000001   0.000001
    32  C   -0.000413  -0.007479   0.006852   0.002648  -0.000050  -0.000052
    33  C   -0.000024   0.000419   0.000097  -0.000076   0.000013  -0.000020
    34  H   -0.002026  -0.009004  -0.009988   0.002538  -0.000595   0.000784
    35  H    0.000724   0.000161   0.000205  -0.000234   0.000045  -0.000047
    36  H   -0.000017  -0.000045   0.000046   0.000012  -0.000003   0.000002
    37  H    0.000011   0.000091   0.000054  -0.000036   0.000001  -0.000001
[...]
     8  H(1)               0.00034       1.50513       0.53707       0.50206
     9  H(1)              -0.00276     -12.31734      -4.39513      -4.10862
    10  H(1)              -0.00008      -0.36328      -0.12963      -0.12118
    11  N(14)              0.02027       6.55052       2.33739       2.18502
    12  N(14)              0.05623      18.16814       6.48284       6.06024
    13  C(13)             -0.03179     -35.73570     -12.75138     -11.92014
    14  C(13)             -0.00441      -4.95625      -1.76851      -1.65323
    15  H(1)               0.00306      13.65551       4.87262       4.55499
    16  H(1)               0.00231      10.32606       3.68459       3.44440
    17  H(1)               0.00009       0.40042       0.14288       0.13357
    18  S(33)              0.44923     154.29985      55.05802      51.46889
    19  O(17)              0.01427      -8.65187      -3.08720      -2.88595
    20  O(17)              0.01849     -11.20872      -3.99955      -3.73883
    21  C(13)              0.02456      27.61235       9.85277       9.21049
    22  C(13)             -0.00413      -4.64659      -1.65802      -1.54994
    23  H(1)              -0.00068      -3.04505      -1.08655      -1.01572
    24  H(1)               0.00242      10.82934       3.86418       3.61228
    25  C(13)              0.01616      18.16673       6.48234       6.05977
    26  H(1)               0.00006       0.28297       0.10097       0.09439
    27  H(1)               0.00144       6.44000       2.29795       2.14815
    28  C(13)             -0.00337      -3.79396      -1.35378      -1.26553
    29  H(1)              -0.00042      -1.88490      -0.67258      -0.62873
    30  H(1)               0.00005       0.23369       0.08339       0.07795
    31  H(1)              -0.00002      -0.08944      -0.03191      -0.02983
    32  C(13)              0.00161       1.81346       0.64709       0.60491
    33  C(13)              0.00066       0.74747       0.26672       0.24933
    34  H(1)               0.00046       2.06653       0.73739       0.68932
    35  H(1)               0.00002       0.09298       0.03318       0.03101
    36  H(1)              -0.00001      -0.05738      -0.02047      -0.01914
    37  H(1)              -0.00001      -0.03099      -0.01106      -0.01034
    38  H(1)               0.00004       0.19984       0.07131       0.06666
 --------------------------------------------------------
       Center         ----  Spin Dipole Couplings  ----
                      3XX-RR        3YY-RR        3ZZ-RR
 --------------------------------------------------------
     1   Atom       -0.046834      0.096754     -0.049920
     2   Atom        0.018632     -0.023555      0.004923
     3   Atom       -0.062148      0.128442     -0.066294
     4   Atom        0.020306     -0.039192      0.018886
     5   Atom       -0.075845      0.159195     -0.083350
     6   Atom        0.002256     -0.006776      0.004520
     7   Atom       -0.005271     -0.003337      0.008608
     8   Atom        0.002651     -0.003060      0.000409
     9   Atom        0.005616     -0.002154     -0.003462
    10   Atom        0.000297     -0.002469      0.002172
    11   Atom       -0.134815      0.271734     -0.136918
    12   Atom       -0.338571      0.686849     -0.348278
    13   Atom        0.034875     -0.088670      0.053795
    14   Atom       -0.002343     -0.001515      0.003858
    15   Atom       -0.001948     -0.001058      0.003006
    16   Atom       -0.001674     -0.002539      0.004214
    17   Atom       -0.000636     -0.000859      0.001495
    18   Atom        0.164135      0.357935     -0.522070
    19   Atom        0.052852      0.099159     -0.152011
    20   Atom        0.109151      0.023296     -0.132447
    21   Atom        0.052674     -0.023113     -0.029560
    22   Atom        0.004762     -0.000865     -0.003897
    23   Atom        0.001977     -0.005496      0.003519
    24   Atom        0.005326     -0.002116     -0.003210
    25   Atom        0.023983     -0.005504     -0.018479
    26   Atom        0.001201     -0.000078     -0.001123
    27   Atom        0.001156      0.000508     -0.001664
    28   Atom        0.001952     -0.001501     -0.000452
    29   Atom        0.002719     -0.001449     -0.001270
    30   Atom       -0.000018      0.001490     -0.001472
    31   Atom       -0.000125      0.001216     -0.001091
    32   Atom       -0.000244      0.003100     -0.002856
    33   Atom       -0.001229      0.002334     -0.001106
    34   Atom       -0.002810      0.005300     -0.002490
    35   Atom       -0.001653      0.003159     -0.001505
    36   Atom       -0.000628      0.001378     -0.000750
    37   Atom       -0.000733      0.001271     -0.000537
    38   Atom       -0.000402      0.001023     -0.000621
 --------------------------------------------------------
                        XY            XZ            YZ
 --------------------------------------------------------
     1   Atom       -0.028608      0.007248     -0.015195
     2   Atom        0.010495     -0.004578     -0.000344
     3   Atom       -0.037064      0.002752     -0.022044
     4   Atom        0.011754     -0.004778      0.005075
     5   Atom       -0.045194      0.000205     -0.023968
     6   Atom        0.000886     -0.000270      0.001204
     7   Atom       -0.000222      0.004082      0.001797
     8   Atom        0.000543     -0.002370      0.000050
     9   Atom        0.000001     -0.012804     -0.002466
    10   Atom        0.000691      0.002737      0.001005
    11   Atom       -0.085995      0.000737     -0.011921
    12   Atom       -0.186675      0.024261     -0.098997
    13   Atom        0.047349      0.000022      0.016935
    14   Atom       -0.000852      0.001798      0.002010
    15   Atom        0.000018      0.000487      0.002925
    16   Atom       -0.000949      0.000226     -0.000243
    17   Atom        0.000343      0.002862      0.002286
    18   Atom       -0.805456      0.112160     -0.121446
    19   Atom       -0.257878     -0.065598      0.074628
    20   Atom       -0.254100      0.130097     -0.104767
    21   Atom        0.030060     -0.019102     -0.006479
    22   Atom        0.001866     -0.000515      0.000433
    23   Atom        0.001137     -0.003799     -0.001178
    24   Atom       -0.002198      0.001512     -0.003206
    25   Atom        0.021753     -0.003228     -0.001909
    26   Atom        0.001987      0.001733      0.001457
    27   Atom        0.001982     -0.000028     -0.000322
    28   Atom        0.002240      0.000324     -0.001385
    29   Atom        0.003357     -0.001390     -0.002487
    30   Atom        0.001859      0.000770      0.001313
    31   Atom        0.001268      0.000271      0.000180
    32   Atom        0.003289      0.000508      0.000515
    33   Atom        0.000403      0.000054      0.000588
    34   Atom        0.000389     -0.000509      0.000563
    35   Atom        0.001274     -0.000538     -0.001103
    36   Atom       -0.000079      0.000008     -0.000039
    37   Atom        0.000284      0.000060      0.000556
    38   Atom        0.000483     -0.000027      0.000035
 --------------------------------------------------------


 ---------------------------------------------------------------------------------
              Anisotropic Spin Dipole Couplings in Principal Axis System
 ---------------------------------------------------------------------------------

       Atom             a.u.   MegaHertz   Gauss  10(-4) cm-1        Axes

              Baa    -0.0562    -7.545    -2.692    -2.517  0.7348  0.0704 -0.6746
     1 C(13)  Bbb    -0.0477    -6.406    -2.286    -2.137  0.6511  0.2057  0.7306
              Bcc     0.1040    13.952     4.978     4.654 -0.1902  0.9761 -0.1053
 
              Baa    -0.0260    -3.494    -1.247    -1.166 -0.2309  0.9727 -0.0233
     2 C(13)  Bbb     0.0038     0.504     0.180     0.168  0.2409  0.0804  0.9672
              Bcc     0.0223     2.990     1.067     0.997  0.9427  0.2177 -0.2529
 
              Baa    -0.0703    -9.429    -3.365    -3.145  0.7310  0.2084  0.6497
     3 C(13)  Bbb    -0.0675    -9.063    -3.234    -3.023 -0.6575 -0.0397  0.7524
              Bcc     0.1378    18.492     6.598     6.168 -0.1826  0.9772 -0.1080
 
              Baa    -0.0420    -5.636    -2.011    -1.880 -0.1917  0.9767 -0.0965
     4 C(13)  Bbb     0.0170     2.277     0.812     0.759  0.5299  0.1857  0.8275
              Bcc     0.0250     3.359     1.199     1.121  0.8261  0.1075 -0.5532
 
              Baa    -0.0891   -11.956    -4.266    -3.988  0.6259  0.1870  0.7572
     5 C(13)  Bbb    -0.0807   -10.827    -3.863    -3.612  0.7588  0.0784 -0.6466
              Bcc     0.1698    22.784     8.130     7.600 -0.1802  0.9792 -0.0929
 
              Baa    -0.0070    -0.938    -0.335    -0.313 -0.0978  0.9896 -0.1058
     6 C(13)  Bbb     0.0023     0.313     0.112     0.104  0.9924  0.1050  0.0646
              Bcc     0.0047     0.625     0.223     0.209 -0.0750  0.0987  0.9923
 
              Baa    -0.0065    -3.488    -1.245    -1.164  0.9348  0.2210 -0.2782
     7 H(1)   Bbb    -0.0034    -1.811    -0.646    -0.604 -0.2468  0.9671 -0.0609
              Bcc     0.0099     5.299     1.891     1.768  0.2556  0.1255  0.9586
 
              Baa    -0.0031    -1.675    -0.598    -0.559 -0.1349  0.9854 -0.1039
     8 H(1)   Bbb    -0.0010    -0.554    -0.198    -0.185  0.5169  0.1594  0.8410
              Bcc     0.0042     2.229     0.795     0.744  0.8453  0.0597 -0.5309
 
              Baa    -0.0129    -6.876    -2.454    -2.294  0.5591  0.1856  0.8081
     9 H(1)   Bbb    -0.0019    -1.011    -0.361    -0.337 -0.1760  0.9790 -0.1031
              Bcc     0.0148     7.887     2.814     2.631  0.8102  0.0845 -0.5800
 
              Baa    -0.0027    -1.434    -0.512    -0.478 -0.0850  0.9842 -0.1556
    10 H(1)   Bbb    -0.0017    -0.885    -0.316    -0.295  0.8160 -0.0209 -0.5777
              Bcc     0.0043     2.319     0.827     0.773  0.5718  0.1761  0.8013
 
              Baa    -0.1524    -5.879    -2.098    -1.961  0.9738  0.2004  0.1078
    11 N(14)  Bbb    -0.1371    -5.286    -1.886    -1.763 -0.1111  0.0056  0.9938
              Bcc     0.2895    11.166     3.984     3.724 -0.1986  0.9797 -0.0277
 
              Baa    -0.3742   -14.433    -5.150    -4.814  0.9179  0.1264 -0.3761
    12 N(14)  Bbb    -0.3552   -13.698    -4.888    -4.569  0.3568  0.1515  0.9218
              Bcc     0.7294    28.130    10.038     9.383 -0.1735  0.9803 -0.0940
 
              Baa    -0.1063   -14.269    -5.092    -4.760 -0.3163  0.9434 -0.0997
    13 C(13)  Bbb     0.0473     6.346     2.265     2.117  0.8054  0.2115 -0.5537
              Bcc     0.0590     7.923     2.827     2.643  0.5013  0.2555  0.8267
 
              Baa    -0.0038    -0.507    -0.181    -0.169  0.7507  0.5736 -0.3277
    14 C(13)  Bbb    -0.0010    -0.141    -0.050    -0.047 -0.6284  0.7731 -0.0864
              Bcc     0.0048     0.648     0.231     0.216  0.2038  0.2708  0.9408
 
              Baa    -0.0027    -1.415    -0.505    -0.472  0.2961  0.8379 -0.4585
    15 H(1)   Bbb    -0.0019    -1.021    -0.364    -0.340  0.9528 -0.2930  0.0799
              Bcc     0.0046     2.436     0.869     0.813  0.0674  0.4605  0.8851
 
              Baa    -0.0032    -1.681    -0.600    -0.561  0.5394  0.8420  0.0113
    16 H(1)   Bbb    -0.0011    -0.578    -0.206    -0.193  0.8409 -0.5379 -0.0606
              Bcc     0.0042     2.259     0.806     0.754  0.0449 -0.0422  0.9981
 
              Baa    -0.0032    -1.723    -0.615    -0.575 -0.6097 -0.5028  0.6127
    17 H(1)   Bbb    -0.0011    -0.590    -0.211    -0.197 -0.6299  0.7766  0.0106
              Bcc     0.0043     2.313     0.825     0.772  0.4811  0.3795  0.7902
 
              Baa    -0.5511   -22.596    -8.063    -7.537  0.7394  0.6201 -0.2624
    18 S(33)  Bbb    -0.5381   -22.062    -7.872    -7.359  0.1320  0.2487  0.9596
              Bcc     1.0893    44.658    15.935    14.896 -0.6602  0.7441 -0.1020
 
              Baa    -0.1832    13.258     4.731     4.422  0.7081  0.6883 -0.1575
    19 O(17)  Bbb    -0.1712    12.387     4.420     4.132  0.2466 -0.0321  0.9686
              Bcc     0.3544   -25.645    -9.151    -8.554 -0.6616  0.7247  0.1925
 
              Baa    -0.1936    14.011     4.999     4.674  0.6769  0.5651 -0.4717
    20 O(17)  Bbb    -0.1849    13.377     4.773     4.462  0.1131  0.5534  0.8252
              Bcc     0.3785   -27.388    -9.773    -9.136  0.7273 -0.6119  0.3107
 
              Baa    -0.0339    -4.543    -1.621    -1.516  0.3353 -0.4336  0.8364
    21 C(13)  Bbb    -0.0335    -4.494    -1.604    -1.499 -0.1808  0.8417  0.5088
              Bcc     0.0673     9.037     3.225     3.015  0.9246  0.3218 -0.2038
 
              Baa    -0.0040    -0.541    -0.193    -0.181  0.0978 -0.1912  0.9767
    22 C(13)  Bbb    -0.0013    -0.175    -0.063    -0.058 -0.2709  0.9392  0.2109
              Bcc     0.0053     0.716     0.256     0.239  0.9576  0.2852 -0.0400
 
              Baa    -0.0057    -3.050    -1.088    -1.017 -0.1054  0.9910  0.0831
    23 H(1)   Bbb    -0.0011    -0.600    -0.214    -0.200  0.7701  0.0285  0.6372
              Bcc     0.0068     3.650     1.302     1.217 -0.6291 -0.1311  0.7662
 
              Baa    -0.0059    -3.160    -1.127    -1.054  0.0257  0.6527  0.7572
    24 H(1)   Bbb    -0.0006    -0.319    -0.114    -0.106  0.4082  0.6846 -0.6040
              Bcc     0.0065     3.479     1.241     1.160  0.9125 -0.3246  0.2488
 
              Baa    -0.0188    -2.517    -0.898    -0.839  0.0132  0.1213  0.9925
    25 C(13)  Bbb    -0.0170    -2.284    -0.815    -0.762 -0.4724  0.8756 -0.1007
              Bcc     0.0358     4.801     1.713     1.601  0.8813  0.4676 -0.0689
 
              Baa    -0.0022    -1.179    -0.421    -0.393 -0.2135 -0.4077  0.8878
    26 H(1)   Bbb    -0.0015    -0.799    -0.285    -0.266 -0.6555  0.7336  0.1793
              Bcc     0.0037     1.977     0.706     0.660  0.7244  0.5436  0.4239
 
              Baa    -0.0018    -0.941    -0.336    -0.314 -0.1981  0.3050  0.9315
    27 H(1)   Bbb    -0.0011    -0.581    -0.207    -0.194 -0.6200  0.6971 -0.3601
              Bcc     0.0029     1.522     0.543     0.508  0.7592  0.6489 -0.0510
 
              Baa    -0.0033    -0.441    -0.157    -0.147 -0.3759  0.8148  0.4413
    28 C(13)  Bbb     0.0002     0.027     0.009     0.009  0.2845 -0.3518  0.8918
              Bcc     0.0031     0.414     0.148     0.138  0.8819  0.4608 -0.0995
 
              Baa    -0.0043    -2.281    -0.814    -0.761 -0.2778  0.7992  0.5330
    29 H(1)   Bbb    -0.0012    -0.648    -0.231    -0.216  0.5485 -0.3236  0.7710
              Bcc     0.0055     2.929     1.045     0.977  0.7887  0.5065 -0.3485
 
              Baa    -0.0020    -1.053    -0.376    -0.351 -0.0646 -0.3232  0.9441
    30 H(1)   Bbb    -0.0013    -0.671    -0.240    -0.224  0.8479 -0.5166 -0.1188
              Bcc     0.0032     1.725     0.615     0.575  0.5261  0.7929  0.3074
 
              Baa    -0.0012    -0.632    -0.225    -0.211 -0.4063  0.1471  0.9018
    31 H(1)   Bbb    -0.0008    -0.440    -0.157    -0.147  0.7530 -0.5053  0.4216
              Bcc     0.0020     1.071     0.382     0.357  0.5177  0.8503  0.0946
 
              Baa    -0.0030    -0.397    -0.142    -0.132 -0.2387  0.0472  0.9699
    32 C(13)  Bbb    -0.0022    -0.298    -0.106    -0.100  0.8185 -0.5277  0.2271
              Bcc     0.0052     0.695     0.248     0.232  0.5225  0.8481  0.0874
 
              Baa    -0.0013    -0.171    -0.061    -0.057  0.9791 -0.1341  0.1530
    33 C(13)  Bbb    -0.0012    -0.161    -0.058    -0.054 -0.1719 -0.1425  0.9748
              Bcc     0.0025     0.332     0.119     0.111  0.1089  0.9807  0.1625
 
              Baa    -0.0032    -1.725    -0.616    -0.575  0.7946 -0.0760  0.6023
    34 H(1)   Bbb    -0.0021    -1.133    -0.404    -0.378 -0.6056 -0.0286  0.7953
              Bcc     0.0054     2.858     1.020     0.953  0.0432  0.9967  0.0687
 
              Baa    -0.0021    -1.143    -0.408    -0.381  0.8279 -0.0836  0.5546
    35 H(1)   Bbb    -0.0016    -0.858    -0.306    -0.286 -0.5046  0.3204  0.8017
              Bcc     0.0037     2.001     0.714     0.667  0.2447  0.9436 -0.2231
 
              Baa    -0.0008    -0.401    -0.143    -0.134 -0.0509  0.0162  0.9986
    36 H(1)   Bbb    -0.0006    -0.336    -0.120    -0.112  0.9979  0.0402  0.0503
              Bcc     0.0014     0.737     0.263     0.246 -0.0394  0.9991 -0.0183
 
              Baa    -0.0008    -0.414    -0.148    -0.138  0.9635 -0.1860  0.1923
    37 H(1)   Bbb    -0.0007    -0.368    -0.131    -0.123 -0.2335 -0.2339  0.9438
              Bcc     0.0015     0.782     0.279     0.261  0.1306  0.9543  0.2689
 
              Baa    -0.0006    -0.339    -0.121    -0.113  0.3629 -0.1252  0.9234
    38 H(1)   Bbb    -0.0005    -0.286    -0.102    -0.095  0.8845 -0.2654 -0.3837
              Bcc     0.0012     0.625     0.223     0.208  0.2931  0.9560  0.0144
 

 ---------------------------------------------------------------------------------

 Unable to Open any file for archive entry.
 1\1\GINC-CLUSTER\SP\UM062X\def2TZVP\C14H19N2O2S1(2)\KJIANG\21-Nov-2025
 \0\\# scrf=(solvent=n,n-dimethylformamide) def2tzvp m062x geom=allchec
 k\\Title Card Required\\0,2\C,0,-2.8354807828,-0.6205778075,-1.5239850
 001\C,0,-1.6276573776,-0.3188445158,-0.8577209908\C,0,-1.6299856295,-0
 .155386599,0.5607781499\C,0,-2.7866131463,-0.2977421399,1.3277236789\C
 ,0,-3.9546862795,-0.5974668522,0.6415523205\C,0,-3.9784096596,-0.75470
 69191,-0.7645773682\H,0,-2.8371964951,-0.7483155934,-2.6006727334\H,0,
 -2.7749842763,-0.1815776072,2.4064150419\H,0,-4.8783018364,-0.71832436
 25,1.1985416755\H,0,-4.9201597829,-0.9933523012,-1.247673323\N,0,-0.34
 86786945,0.1599019708,0.9074439384\N,0,-0.3964215345,-0.1274687407,-1.
 3631834374\C,0,0.4363866308,0.0452959436,-0.2742876092\C,0,0.095315817
 9,0.3057103265,2.2792731813\H,0,-0.3867741614,1.1799850713,2.730329631
 3\H,0,-0.1414924942,-0.5952046937,2.8515454243\H,0,1.1751956992,0.4376
 303897,2.3031475083\S,0,1.4258220468,-1.8197179343,-0.043345373\O,0,1.
 0236318641,-2.8663065717,-0.9793749405\O,0,1.4614056958,-2.0836454418,
 1.4043538572\C,0,3.0385092449,-1.1228680985,-0.4843941507\C,0,2.964665
 8511,0.3096761379,0.0291181672\H,0,3.1227676412,-1.1728483722,-1.57290
 63839\H,0,3.8043927535,-1.7392832789,-0.0092133393\C,0,1.661042383,0.9
 447425721,-0.4922041739\H,0,3.0037368752,0.309950378,1.124270459\H,0,3
 .819238984,0.8918742364,-0.3282323764\C,0,1.4356712738,2.3736956649,0.
 0082087698\H,0,1.7436297517,0.9796008519,-1.5860755135\H,0,1.351533127
 1,2.3836558207,1.1030757984\H,0,2.3338085735,2.9591196686,-0.232462957
 9\C,0,0.2107568809,3.0509581785,-0.606906525\C,0,0.0736400278,4.501410
 1946,-0.1517943742\H,0,-0.6931157761,2.49105481,-0.3387091366\H,0,0.28
 52191711,3.0041349195,-1.7002880666\H,0,-0.8059829935,4.9760229782,-0.
 5947382036\H,0,-0.0258047758,4.56219198,0.9373897089\H,0,0.9526724025,
 5.0886027365,-0.438179334\\Version=ES64L-G16RevC.02\State=2-A\HF=-1202
 .9972389\S2=0.773234\S2-1=0.\S2A=0.7504\RMSD=4.085e-09\Dipole=0.642860
 8,2.5188549,1.0595232\Quadrupole=16.2588686,-14.9023722,-1.3564964,5.3
 667711,-4.0939084,0.804007\PG=C01 [X(C14H19N2O2S1)]\\@
 The archive entry for this job was punched.


 FROM AN ANONYMOUS WRITER, ON PERSPECTIVE:

 MAN, DESPITE HIS ARTISTIC PRETENSIONS, HIS SOPHISTICATION AND MANY 
 ACCOMPLISHMENTS, OWES THE FACT OF HIS EXISTENCE TO A SIX-INCH LAYER OF 
 TOPSOIL AND THE FACT THAT IT RAINS.
 Job cpu time:       0 days  3 hours 37 minutes  9.8 seconds.
 Elapsed time:       0 days  0 hours  2 minutes 37.8 seconds.
 File lengths (MBytes):  RWF=    582 Int=      0 D2E=      0 Chk=     47 Scr=      1
 Normal termination of Gaussian 16 at Fri Nov 21 18:44:08 2025.
