 Entering Gaussian System, Link 0=g16
 Initial command:
 /public/software/g16/l1.exe "/tmp/Gau-14151.inp" -scrdir="/tmp/"
 Entering Link 1 = /public/software/g16/l1.exe PID=     14152.
  
 Copyright (c) 1988-2021, Gaussian, Inc.  All Rights Reserved.
  
 This is part of the Gaussian(R) 16 program.  It is based on
 the Gaussian(R) 09 system (copyright 2009, Gaussian, Inc.),
 the Gaussian(R) 03 system (copyright 2003, Gaussian, Inc.),
 the Gaussian(R) 98 system (copyright 1998, Gaussian, Inc.),
 the Gaussian(R) 94 system (copyright 1995, Gaussian, Inc.),
 the Gaussian 92(TM) system (copyright 1992, Gaussian, Inc.),
 the Gaussian 90(TM) system (copyright 1990, Gaussian, Inc.),
 the Gaussian 88(TM) system (copyright 1988, Gaussian, Inc.),
 the Gaussian 86(TM) system (copyright 1986, Carnegie Mellon
 University), and the Gaussian 82(TM) system (copyright 1983,
 Carnegie Mellon University). Gaussian is a federally registered
 trademark of Gaussian, Inc.
  
 This software contains proprietary and confidential information,
 including trade secrets, belonging to Gaussian, Inc.
  
 This software is provided under written license and may be
 used, copied, transmitted, or stored only in accord with that
 written license.
  
 The following legend is applicable only to US Government
 contracts under FAR:
  
                    RESTRICTED RIGHTS LEGEND
  
 Use, reproduction and disclosure by the US Government is
 subject to restrictions as set forth in subparagraphs (a)
 and (c) of the Commercial Computer Software - Restricted
 Rights clause in FAR 52.227-19.
  
 Gaussian, Inc.
 340 Quinnipiac St., Bldg. 40, Wallingford CT 06492
  
  
 ---------------------------------------------------------------
 Warning -- This program may not be used in any manner that
 competes with the business of Gaussian, Inc. or will provide
 assistance to any competitor of Gaussian, Inc.  The licensee
 of this program is prohibited from giving any competitor of
 Gaussian, Inc. access to this program.  By using this program,
 the user acknowledges that Gaussian, Inc. is engaged in the
 business of creating and licensing software in the field of
 computational chemistry and represents and warrants to the
 licensee that it is not a competitor of Gaussian, Inc. and that
 it will not use this program in any manner prohibited above.
 ---------------------------------------------------------------
  

 Cite this work as:
 Gaussian 16, Revision C.02,
 M. J. Frisch, G. W. Trucks, H. B. Schlegel, G. E. Scuseria, 
 M. A. Robb, J. R. Cheeseman, G. Scalmani, V. Barone, 
 G. A. Petersson, H. Nakatsuji, X. Li, M. Caricato, A. V. Marenich, 
 J. Bloino, B. G. Janesko, R. Gomperts, B. Mennucci, H. P. Hratchian, 
 J. V. Ortiz, A. F. Izmaylov, J. L. Sonnenberg, D. Williams-Young, 
 F. Ding, F. Lipparini, F. Egidi, J. Goings, B. Peng, A. Petrone, 
 T. Henderson, D. Ranasinghe, V. G. Zakrzewski, J. Gao, N. Rega, 
 G. Zheng, W. Liang, M. Hada, M. Ehara, K. Toyota, R. Fukuda, 
 J. Hasegawa, M. Ishida, T. Nakajima, Y. Honda, O. Kitao, H. Nakai, 
 T. Vreven, K. Throssell, J. A. Montgomery, Jr., J. E. Peralta, 
 F. Ogliaro, M. J. Bearpark, J. J. Heyd, E. N. Brothers, K. N. Kudin, 
 V. N. Staroverov, T. A. Keith, R. Kobayashi, J. Normand, 
 K. Raghavachari, A. P. Rendell, J. C. Burant, S. S. Iyengar, 
 J. Tomasi, M. Cossi, J. M. Millam, M. Klene, C. Adamo, R. Cammi, 
 J. W. Ochterski, R. L. Martin, K. Morokuma, O. Farkas, 
 J. B. Foresman, and D. J. Fox, Gaussian, Inc., Wallingford CT, 2019.
 
 ******************************************
 Gaussian 16:  ES64L-G16RevC.02  7-Dec-2021
                21-Nov-2025 
 ******************************************
 %nprocshared=96
 Will use up to   96 processors via shared memory.
 %mem=50GB
 %chk=TS3.chk
 -------------------------------------------------------------------
 # scrf=(solvent=n,n-dimethylformamide) def2tzvp m062x geom=allcheck
 -------------------------------------------------------------------
 1/29=7,38=1,172=1/1;
 2/12=2,40=1/2;
 3/5=44,7=101,11=2,14=-4,25=1,30=1,70=2201,72=148,74=-55/1,2,3;
 4//1;
 5/5=2,38=5,53=148/2;
 6/7=2,8=2,9=2,10=2,28=1/1;
 99/5=1,9=1/99;
 Structure from the checkpoint file:  "TS3.chk"
 -------------------
 Title Card Required
 -------------------
 Charge =  0 Multiplicity = 2
 Redundant internal coordinates found in file.  (old form).
 C,0,-4.7279472154,-2.5481604377,0.0068361163
 C,0,-4.0298623429,-1.3823339133,-0.3354206349
 C,0,-3.1082841398,-1.3989996762,-1.4026956054
 C,0,-2.8514835775,-2.5494737023,-2.1565655662
 C,0,-3.5531096329,-3.6890366526,-1.7995136224
 C,0,-4.4778242154,-3.6898106699,-0.7333417029
 H,0,-5.4362853633,-2.5370968461,0.8282238356
 H,0,-2.139948738,-2.5521318613,-2.9764944141
 H,0,-3.3879401866,-4.6072268312,-2.3541555714
 H,0,-5.0007803863,-4.6096197608,-0.4932262476
 N,0,-4.0627662961,-0.1303366222,0.2459279124
 N,0,-2.5935565127,-0.1228372537,-1.4682263599
 C,0,-1.6287506577,0.3395153466,-2.459335254
 H,0,-1.8839968599,-0.1125730121,-3.4203947035
 H,0,-1.7010861866,1.4226256721,-2.5514788912
 H,0,-0.6095010694,0.0644623587,-2.1735028364
 C,0,-3.2112350336,0.563810583,-0.4516976564
 S,0,-2.8168597844,2.2727611838,-0.0715613514
 O,0,-3.6603293017,2.6948197764,1.033263429
 O,0,-2.8271175368,3.0047231751,-1.3407508443
 C,0,-1.113867939,2.1454109482,0.4781771248
 C,0,-0.4404676081,3.5208156097,0.4379434012
 H,0,-0.5960879602,1.4425042565,-0.1812656913
 H,0,-1.1481656751,1.7351779495,1.4898973611
 C,0,0.9953869333,3.3906265266,0.8340783567
 H,0,-0.5276230769,3.9490769109,-0.5655641373
 H,0,-0.9631587069,4.1920161876,1.1326454745
 C,0,2.0325764233,3.7145862652,-0.0051996061
 H,0,1.2087812777,2.9328160054,1.7986389817
 H,0,3.0473236745,3.7686974348,0.3843653772
 H,0,1.8397022377,4.3080070027,-0.8973563146
 S,0,2.4625403095,1.8022339205,-1.2703621767
 C,0,3.8745586074,1.0767743696,-0.3895957934
 O,0,1.3316797972,0.8638714742,-1.0960777662
 O,0,2.9030410812,2.13456406,-2.6348770161
 C,0,3.9914755593,-0.4250261761,-0.690093144
 H,0,3.6852475867,1.2570137859,0.6742848895
 H,0,4.7393406849,1.6558653303,-0.7199487567
 H,0,5.0207464826,-0.6436361872,-0.9877570511
 C,0,3.6388144339,-1.2902309167,0.5354400603
 H,0,3.3591058399,-0.7006889991,-1.542051879
 C,0,2.30929957,-0.9334318381,1.1473281949
 C,0,3.8027059308,-2.7921751117,0.243813928
 H,0,4.3519121988,-1.0242610711,1.3259428312
 N,0,2.220111335,-0.1340889912,2.1853574473
 N,0,1.0933990145,-1.4277579403,0.7389301285
 C,0,0.7800933128,-2.1638163378,-0.4697095724
 H,0,1.370964346,-1.7756440317,-1.3021280413
 H,0,0.9555380473,-3.2362664597,-0.3490229898
 H,0,-0.2764526754,-2.0046337097,-0.7016067218
 H,0,3.2766037416,-3.368232229,1.0162097337
 H,0,3.3279883431,-3.0451059243,-0.7133047931
 C,0,5.2640466469,-3.2428333852,0.2050534639
 C,0,0.1491256332,-0.8990661598,1.5958321221
 C,0,0.872379714,-0.0907689042,2.4936040277
 H,0,5.8100978232,-2.6854089924,-0.5656102599
 H,0,5.7390478575,-2.9972602265,1.1629562989
 C,0,5.3936291847,-4.7394062235,-0.0670278124
 C,0,-1.233900029,-1.0639315991,1.6809082999
 C,0,0.2014149332,0.5754885511,3.5262412974
 H,0,4.9490177444,-5.0016100037,-1.0327562504
 H,0,6.4409368292,-5.0525520678,-0.0840517762
 H,0,4.8807346627,-5.3218753641,0.7052613698
 C,0,-1.8837645423,-0.3879520043,2.7055113305
 H,0,-1.7854863114,-1.699468185,0.9929546267
 C,0,-1.1746911882,0.4162978701,3.6198931748
 H,0,0.755712115,1.185686139,4.232786648
 H,0,-2.9632321651,-0.4669104053,2.7842379611
 H,0,-1.7222229982,0.9247779901,4.4067796071
 Recover connectivity data from disk.
                           ----------------------------
                           !    Current Parameters    !
                           ! (Angstroms and Degrees)  !
 --------------------------                            --------------------------
 ! Name  Definition              Value                                          !
 --------------------------------------------------------------------------------
 ! R1    R(1,2)                  1.4013                                         !
 ! R2    R(1,6)                  1.3834                                         !
 ! R3    R(1,7)                  1.0847                                         !
 ! R4    R(2,3)                  1.4102                                         !
 ! R5    R(2,11)                 1.3808                                         !
 ! R6    R(3,4)                  1.3992                                         !
 ! R7    R(3,12)                 1.3776                                         !
 ! R8    R(4,5)                  1.3851                                         !
 ! R9    R(4,8)                  1.0856                                         !
 ! R10   R(5,6)                  1.4113                                         !
 ! R11   R(5,9)                  1.0853                                         !
 ! R12   R(6,10)                 1.085                                          !
 ! R13   R(11,17)                1.3014                                         !
 ! R14   R(12,13)                1.4584                                         !
 ! R15   R(12,17)                1.3734                                         !
 ! R16   R(13,14)                1.0923                                         !
 ! R17   R(13,15)                1.0894                                         !
 ! R18   R(13,16)                1.0937                                         !
 ! R19   R(17,18)                1.7946                                         !
 ! R20   R(18,19)                1.4527                                         !
 ! R21   R(18,20)                1.4652                                         !
 ! R22   R(18,21)                1.794                                          !
 ! R23   R(21,22)                1.5319                                         !
 ! R24   R(21,23)                1.0941                                         !
 ! R25   R(21,24)                1.0923                                         !
 ! R26   R(22,25)                1.4952                                         !
 ! R27   R(22,26)                1.0945                                         !
 ! R28   R(22,27)                1.0983                                         !
 ! R29   R(23,34)                2.2109                                         !
 ! R30   R(25,28)                1.373                                          !
 ! R31   R(25,29)                1.0888                                         !
 ! R32   R(28,30)                1.0883                                         !
 ! R33   R(28,31)                1.0887                                         !
 ! R34   R(28,32)                2.3329                                         !
 ! R35   R(32,33)                1.8154                                         !
 ! R36   R(32,34)                1.4798                                         !
 ! R37   R(32,35)                1.4719                                         !
 ! R38   R(33,36)                1.536                                          !
 ! R39   R(33,37)                1.0955                                         !
 ! R40   R(33,38)                1.0919                                         !
 ! R41   R(36,39)                1.0935                                         !
 ! R42   R(36,40)                1.5411                                         !
 ! R43   R(36,41)                1.0962                                         !
 ! R44   R(40,42)                1.5064                                         !
 ! R45   R(40,43)                1.5387                                         !
 ! R46   R(40,44)                1.0973                                         !
 ! R47   R(42,45)                1.3132                                         !
 ! R48   R(42,46)                1.3746                                         !
 ! R49   R(43,51)                1.0978                                         !
 ! R50   R(43,52)                1.0979                                         !
 ! R51   R(43,53)                1.5297                                         !
 ! R52   R(45,55)                1.3832                                         !
 ! R53   R(46,47)                1.4494                                         !
 ! R54   R(46,54)                1.3804                                         !
 ! R55   R(47,48)                1.0921                                         !
 ! R56   R(47,49)                1.0934                                         !
 ! R57   R(47,50)                1.0933                                         !
 ! R58   R(53,56)                1.0967                                         !
 ! R59   R(53,57)                1.097                                          !
 ! R60   R(53,58)                1.5266                                         !
 ! R61   R(54,55)                1.408                                          !
 ! R62   R(54,59)                1.3954                                         !
 ! R63   R(55,60)                1.4002                                         !
 ! R64   R(58,61)                1.095                                          !
 ! R65   R(58,62)                1.0933                                         !
 ! R66   R(58,63)                1.0949                                         !
 ! R67   R(59,64)                1.3889                                         !
 ! R68   R(59,65)                1.0869                                         !
 ! R69   R(60,66)                1.3884                                         !
 ! R70   R(60,67)                1.0857                                         !
 ! R71   R(64,66)                1.4091                                         !
 ! R72   R(64,68)                1.0852                                         !
 ! R73   R(66,69)                1.0851                                         !
 ! A1    A(2,1,6)              117.7639                                         !
 ! A2    A(2,1,7)              120.1188                                         !
 ! A3    A(6,1,7)              122.1173                                         !
 ! A4    A(1,2,3)              120.0383                                         !
 ! A5    A(1,2,11)             129.767                                          !
 ! A6    A(3,2,11)             110.1778                                         !
 ! A7    A(2,3,4)              122.5077                                         !
 ! A8    A(2,3,12)             105.6183                                         !
 ! A9    A(4,3,12)             131.8715                                         !
 ! A10   A(3,4,5)              116.3994                                         !
 ! A11   A(3,4,8)              121.9526                                         !
 ! A12   A(5,4,8)              121.648                                          !
 ! A13   A(4,5,6)              121.8103                                         !
 ! A14   A(4,5,9)              119.1577                                         !
 ! A15   A(6,5,9)              119.0321                                         !
 ! A16   A(1,6,5)              121.4804                                         !
 ! A17   A(1,6,10)             119.6079                                         !
 ! A18   A(5,6,10)             118.9116                                         !
 ! A19   A(2,11,17)            104.0253                                         !
 ! A20   A(3,12,13)            124.9728                                         !
 ! A21   A(3,12,17)            105.0633                                         !
 ! A22   A(13,12,17)           129.9418                                         !
 ! A23   A(12,13,14)           108.1873                                         !
 ! A24   A(12,13,15)           109.1926                                         !
 ! A25   A(12,13,16)           111.0497                                         !
 ! A26   A(14,13,15)           108.7565                                         !
 ! A27   A(14,13,16)           110.0972                                         !
 ! A28   A(15,13,16)           109.5121                                         !
 ! A29   A(11,17,12)           115.1101                                         !
 ! A30   A(11,17,18)           122.5596                                         !
 ! A31   A(12,17,18)           122.2785                                         !
 ! A32   A(17,18,19)           108.0701                                         !
 ! A33   A(17,18,20)           106.9003                                         !
 ! A34   A(17,18,21)           101.883                                          !
 ! A35   A(19,18,20)           120.6379                                         !
 ! A36   A(19,18,21)           109.8002                                         !
 ! A37   A(20,18,21)           107.9113                                         !
 ! A38   A(18,21,22)           110.2114                                         !
 ! A39   A(18,21,23)           108.068                                          !
 ! A40   A(18,21,24)           106.3008                                         !
 ! A41   A(22,21,23)           110.668                                          !
 ! A42   A(22,21,24)           112.0449                                         !
 ! A43   A(23,21,24)           109.3811                                         !
 ! A44   A(21,22,25)           109.6942                                         !
 ! A45   A(21,22,26)           109.8992                                         !
 ! A46   A(21,22,27)           108.8362                                         !
 ! A47   A(25,22,26)           110.698                                          !
 ! A48   A(25,22,27)           110.0383                                         !
 ! A49   A(26,22,27)           107.6317                                         !
 ! A50   A(21,23,34)           146.1182                                         !
 ! A51   A(22,25,28)           122.885                                          !
 ! A52   A(22,25,29)           117.357                                          !
 ! A53   A(28,25,29)           119.5168                                         !
 ! A54   A(25,28,30)           119.8208                                         !
 ! A55   A(25,28,31)           119.7158                                         !
 ! A56   A(25,28,32)           106.0997                                         !
 ! A57   A(30,28,31)           115.5574                                         !
 ! A58   A(30,28,32)            93.6139                                         !
 ! A59   A(31,28,32)            92.0089                                         !
 ! A60   A(28,32,33)           101.994                                          !
 ! A61   A(28,32,34)           108.3661                                         !
 ! A62   A(28,32,35)           111.8901                                         !
 ! A63   A(33,32,34)           106.4901                                         !
 ! A64   A(33,32,35)           107.8917                                         !
 ! A65   A(34,32,35)           118.7559                                         !
 ! A66   A(32,33,36)           110.7929                                         !
 ! A67   A(32,33,37)           105.7233                                         !
 ! A68   A(32,33,38)           104.9087                                         !
 ! A69   A(36,33,37)           111.3457                                         !
 ! A70   A(36,33,38)           113.5187                                         !
 ! A71   A(37,33,38)           110.0844                                         !
 ! A72   A(23,34,32)           123.3067                                         !
 ! A73   A(33,36,39)           108.6845                                         !
 ! A74   A(33,36,40)           112.0817                                         !
 ! A75   A(33,36,41)           110.7318                                         !
 ! A76   A(39,36,40)           108.6406                                         !
 ! A77   A(39,36,41)           106.3284                                         !
 ! A78   A(40,36,41)           110.1731                                         !
 ! A79   A(36,40,42)           113.0797                                         !
 ! A80   A(36,40,43)           111.8954                                         !
 ! A81   A(36,40,44)           106.7439                                         !
 ! A82   A(42,40,43)           113.7138                                         !
 ! A83   A(42,40,44)           102.9154                                         !
 ! A84   A(43,40,44)           107.6917                                         !
 ! A85   A(40,42,45)           121.6815                                         !
 ! A86   A(40,42,46)           125.0863                                         !
 ! A87   A(45,42,46)           113.1833                                         !
 ! A88   A(40,43,51)           109.1348                                         !
 ! A89   A(40,43,52)           110.1226                                         !
 ! A90   A(40,43,53)           113.2099                                         !
 ! A91   A(51,43,52)           106.5741                                         !
 ! A92   A(51,43,53)           108.7257                                         !
 ! A93   A(52,43,53)           108.8501                                         !
 ! A94   A(42,45,55)           105.153                                          !
 ! A95   A(42,46,47)           128.4315                                         !
 ! A96   A(42,46,54)           106.4346                                         !
 ! A97   A(47,46,54)           124.3531                                         !
 ! A98   A(46,47,48)           109.7638                                         !
 ! A99   A(46,47,49)           111.801                                          !
 ! A100  A(46,47,50)           108.1688                                         !
 ! A101  A(48,47,49)           110.2393                                         !
 ! A102  A(48,47,50)           108.0237                                         !
 ! A103  A(49,47,50)           108.74                                           !
 ! A104  A(43,53,56)           110.1025                                         !
 ! A105  A(43,53,57)           108.999                                          !
 ! A106  A(43,53,58)           111.9874                                         !
 ! A107  A(56,53,57)           106.512                                          !
 ! A108  A(56,53,58)           109.3149                                         !
 ! A109  A(57,53,58)           109.7741                                         !
 ! A110  A(46,54,55)           105.3257                                         !
 ! A111  A(46,54,59)           132.1127                                         !
 ! A112  A(55,54,59)           122.5523                                         !
 ! A113  A(45,55,54)           109.903                                          !
 ! A114  A(45,55,60)           130.2537                                         !
 ! A115  A(54,55,60)           119.8199                                         !
 ! A116  A(53,58,61)           110.9441                                         !
 ! A117  A(53,58,62)           111.4007                                         !
 ! A118  A(53,58,63)           110.8577                                         !
 ! A119  A(61,58,62)           107.8573                                         !
 ! A120  A(61,58,63)           107.7275                                         !
 ! A121  A(62,58,63)           107.9004                                         !
 ! A122  A(54,59,64)           116.8216                                         !
 ! A123  A(54,59,65)           122.2393                                         !
 ! A124  A(64,59,65)           120.9335                                         !
 ! A125  A(55,60,66)           118.0432                                         !
 ! A126  A(55,60,67)           120.1808                                         !
 ! A127  A(66,60,67)           121.7719                                         !
 ! A128  A(59,64,66)           121.4007                                         !
 ! A129  A(59,64,68)           118.9157                                         !
 ! A130  A(66,64,68)           119.6686                                         !
 ! A131  A(60,66,64)           121.3584                                         !
 ! A132  A(60,66,69)           119.6878                                         !
 ! A133  A(64,66,69)           118.9522                                         !
 ! D1    D(6,1,2,3)             -0.0198                                         !
 ! D2    D(6,1,2,11)          -178.368                                          !
 ! D3    D(7,1,2,3)            179.9319                                         !
 ! D4    D(7,1,2,11)             1.5838                                         !
 ! D5    D(2,1,6,5)             -0.0461                                         !
 ! D6    D(2,1,6,10)           179.9184                                         !
 ! D7    D(7,1,6,5)           -179.9968                                         !
 ! D8    D(7,1,6,10)            -0.0324                                         !
 ! D9    D(1,2,3,4)              0.0981                                         !
 ! D10   D(1,2,3,12)          -179.3956                                         !
 ! D11   D(11,2,3,4)           178.7455                                         !
 ! D12   D(11,2,3,12)           -0.7483                                         !
 ! D13   D(1,2,11,17)          179.0346                                         !
 ! D14   D(3,2,11,17)            0.5581                                         !
 ! D15   D(2,3,4,5)             -0.1035                                         !
 ! D16   D(2,3,4,8)           -179.9989                                         !
 ! D17   D(12,3,4,5)           179.2418                                         !
 ! D18   D(12,3,4,8)            -0.6536                                         !
 ! D19   D(2,3,12,13)         -177.8196                                         !
 ! D20   D(2,3,12,17)            0.6127                                         !
 ! D21   D(4,3,12,13)            2.7537                                         !
 ! D22   D(4,3,12,17)         -178.814                                          !
 ! D23   D(3,4,5,6)              0.0358                                         !
 ! D24   D(3,4,5,9)           -179.9583                                         !
 ! D25   D(8,4,5,6)            179.9315                                         !
 ! D26   D(8,4,5,9)             -0.0626                                         !
 ! D27   D(4,5,6,1)              0.0387                                         !
 ! D28   D(4,5,6,10)          -179.926                                          !
 ! D29   D(9,5,6,1)           -179.9672                                         !
 ! D30   D(9,5,6,10)             0.0681                                         !
 ! D31   D(2,11,17,12)          -0.1574                                         !
 ! D32   D(2,11,17,18)        -177.592                                          !
 ! D33   D(3,12,13,14)          38.6757                                         !
 ! D34   D(3,12,13,15)         156.8878                                         !
 ! D35   D(3,12,13,16)         -82.2539                                         !
 ! D36   D(17,12,13,14)       -139.3496                                         !
 ! D37   D(17,12,13,15)        -21.1375                                         !
 ! D38   D(17,12,13,16)         99.7208                                         !
 ! D39   D(3,12,17,11)          -0.3031                                         !
 ! D40   D(3,12,17,18)         177.1395                                         !
 ! D41   D(13,12,17,11)        178.0213                                         !
 ! D42   D(13,12,17,18)         -4.5361                                         !
 ! D43   D(11,17,18,19)         -3.7033                                         !
 ! D44   D(11,17,18,20)       -134.9557                                         !
 ! D45   D(11,17,18,21)        111.9405                                         !
 ! D46   D(12,17,18,19)        179.0444                                         !
 ! D47   D(12,17,18,20)         47.792                                          !
 ! D48   D(12,17,18,21)        -65.3118                                         !
 ! D49   D(17,18,21,22)        162.3066                                         !
 ! D50   D(17,18,21,23)         41.2608                                         !
 ! D51   D(17,18,21,24)        -76.0673                                         !
 ! D52   D(19,18,21,22)        -83.3221                                         !
 ! D53   D(19,18,21,23)        155.6321                                         !
 ! D54   D(19,18,21,24)         38.3041                                         !
 ! D55   D(20,18,21,22)         49.9596                                         !
 ! D56   D(20,18,21,23)        -71.0863                                         !
 ! D57   D(20,18,21,24)        171.5857                                         !
 ! D58   D(18,21,22,25)       -177.2596                                         !
 ! D59   D(18,21,22,26)        -55.3348                                         !
 ! D60   D(18,21,22,27)         62.3004                                         !
 ! D61   D(23,21,22,25)        -57.7804                                         !
 ! D62   D(23,21,22,26)         64.1444                                         !
 ! D63   D(23,21,22,27)       -178.2204                                         !
 ! D64   D(24,21,22,25)         64.5912                                         !
 ! D65   D(24,21,22,26)       -173.484                                          !
 ! D66   D(24,21,22,27)        -55.8488                                         !
 ! D67   D(18,21,23,34)        150.6579                                         !
 ! D68   D(22,21,23,34)         29.8964                                         !
 ! D69   D(24,21,23,34)        -94.0179                                         !
 ! D70   D(21,22,25,28)        118.4774                                         !
 ! D71   D(21,22,25,29)        -55.8443                                         !
 ! D72   D(26,22,25,28)         -2.9687                                         !
 ! D73   D(26,22,25,29)       -177.2903                                         !
 ! D74   D(27,22,25,28)       -121.8152                                         !
 ! D75   D(27,22,25,29)         63.8632                                         !
 ! D76   D(21,23,34,32)        -22.4441                                         !
 ! D77   D(22,25,28,30)        169.311                                          !
 ! D78   D(22,25,28,31)         15.1918                                         !
 ! D79   D(22,25,28,32)        -86.74                                           !
 ! D80   D(29,25,28,30)        -16.4849                                         !
 ! D81   D(29,25,28,31)       -170.604                                          !
 ! D82   D(29,25,28,32)         87.4641                                         !
 ! D83   D(25,28,32,33)        -98.5102                                         !
 ! D84   D(25,28,32,34)         13.5939                                         !
 ! D85   D(25,28,32,35)        146.4126                                         !
 ! D86   D(30,28,32,33)         23.9592                                         !
 ! D87   D(30,28,32,34)        136.0633                                         !
 ! D88   D(30,28,32,35)        -91.118                                          !
 ! D89   D(31,28,32,33)        139.729                                          !
 ! D90   D(31,28,32,34)       -108.1669                                         !
 ! D91   D(31,28,32,35)         24.6518                                         !
 ! D92   D(28,32,33,36)        157.9886                                         !
 ! D93   D(28,32,33,37)         37.2321                                         !
 ! D94   D(28,32,33,38)        -79.1359                                         !
 ! D95   D(34,32,33,36)         44.4838                                         !
 ! D96   D(34,32,33,37)        -76.2727                                         !
 ! D97   D(34,32,33,38)        167.3593                                         !
 ! D98   D(35,32,33,36)        -84.0354                                         !
 ! D99   D(35,32,33,37)        155.2081                                         !
 ! D100  D(35,32,33,38)         38.8401                                         !
 ! D101  D(28,32,34,23)         13.0615                                         !
 ! D102  D(33,32,34,23)        122.1262                                         !
 ! D103  D(35,32,34,23)       -116.0094                                         !
 ! D104  D(32,33,36,39)        129.7412                                         !
 ! D105  D(32,33,36,40)       -110.1717                                         !
 ! D106  D(32,33,36,41)         13.2965                                         !
 ! D107  D(37,33,36,39)       -112.8964                                         !
 ! D108  D(37,33,36,40)          7.1907                                         !
 ! D109  D(37,33,36,41)        130.6589                                         !
 ! D110  D(38,33,36,39)         12.0057                                         !
 ! D111  D(38,33,36,40)        132.0928                                         !
 ! D112  D(38,33,36,41)       -104.439                                          !
 ! D113  D(33,36,40,42)         51.9366                                         !
 ! D114  D(33,36,40,43)       -178.0922                                         !
 ! D115  D(33,36,40,44)        -60.5156                                         !
 ! D116  D(39,36,40,42)        172.0493                                         !
 ! D117  D(39,36,40,43)        -57.9795                                         !
 ! D118  D(39,36,40,44)         59.5971                                         !
 ! D119  D(41,36,40,42)        -71.8449                                         !
 ! D120  D(41,36,40,43)         58.1263                                         !
 ! D121  D(41,36,40,44)        175.7029                                         !
 ! D122  D(36,40,42,45)        -97.0832                                         !
 ! D123  D(36,40,42,46)         85.6359                                         !
 ! D124  D(43,40,42,45)        133.8729                                         !
 ! D125  D(43,40,42,46)        -43.408                                          !
 ! D126  D(44,40,42,45)         17.6884                                         !
 ! D127  D(44,40,42,46)       -159.5924                                         !
 ! D128  D(36,40,43,51)       -163.7405                                         !
 ! D129  D(36,40,43,52)        -47.0808                                         !
 ! D130  D(36,40,43,53)         75.0268                                         !
 ! D131  D(42,40,43,51)        -34.0986                                         !
 ! D132  D(42,40,43,52)         82.5612                                         !
 ! D133  D(42,40,43,53)       -155.3313                                         !
 ! D134  D(44,40,43,51)         79.2521                                         !
 ! D135  D(44,40,43,52)       -164.0882                                         !
 ! D136  D(44,40,43,53)        -41.9806                                         !
 ! D137  D(40,42,45,55)       -177.4416                                         !
 ! D138  D(46,42,45,55)          0.1381                                         !
 ! D139  D(40,42,46,47)        -12.6253                                         !
 ! D140  D(40,42,46,54)        177.2793                                         !
 ! D141  D(45,42,46,47)        169.8917                                         !
 ! D142  D(45,42,46,54)         -0.2036                                         !
 ! D143  D(40,43,53,56)        -58.9355                                         !
 ! D144  D(40,43,53,57)         57.5587                                         !
 ! D145  D(40,43,53,58)        179.2196                                         !
 ! D146  D(51,43,53,56)        179.6015                                         !
 ! D147  D(51,43,53,57)        -63.9044                                         !
 ! D148  D(51,43,53,58)         57.7565                                         !
 ! D149  D(52,43,53,56)         63.88                                           !
 ! D150  D(52,43,53,57)       -179.6259                                         !
 ! D151  D(52,43,53,58)        -57.965                                          !
 ! D152  D(42,45,55,54)         -0.02                                           !
 ! D153  D(42,45,55,60)        178.1784                                         !
 ! D154  D(42,46,47,48)        -36.8252                                         !
 ! D155  D(42,46,47,49)         85.8334                                         !
 ! D156  D(42,46,47,50)       -154.4673                                         !
 ! D157  D(54,46,47,48)        131.6474                                         !
 ! D158  D(54,46,47,49)       -105.6941                                         !
 ! D159  D(54,46,47,50)         14.0052                                         !
 ! D160  D(42,46,54,55)          0.1739                                         !
 ! D161  D(42,46,54,59)       -178.7062                                         !
 ! D162  D(47,46,54,55)       -170.4328                                         !
 ! D163  D(47,46,54,59)         10.6872                                         !
 ! D164  D(43,53,58,61)         60.3188                                         !
 ! D165  D(43,53,58,62)       -179.5052                                         !
 ! D166  D(43,53,58,63)        -59.333                                          !
 ! D167  D(56,53,58,61)        -61.9765                                         !
 ! D168  D(56,53,58,62)         58.1995                                         !
 ! D169  D(56,53,58,63)        178.3717                                         !
 ! D170  D(57,53,58,61)       -178.4665                                         !
 ! D171  D(57,53,58,62)        -58.2905                                         !
 ! D172  D(57,53,58,63)         61.8817                                         !
 ! D173  D(46,54,55,45)         -0.0992                                         !
 ! D174  D(46,54,55,60)       -178.5145                                         !
 ! D175  D(59,54,55,45)        178.9151                                         !
 ! D176  D(59,54,55,60)          0.4998                                         !
 ! D177  D(46,54,59,64)        178.6786                                         !
 ! D178  D(46,54,59,65)         -0.4681                                         !
 ! D179  D(55,54,59,64)         -0.0399                                         !
 ! D180  D(55,54,59,65)       -179.1866                                         !
 ! D181  D(45,55,60,66)       -178.4517                                         !
 ! D182  D(45,55,60,67)          0.8295                                         !
 ! D183  D(54,55,60,66)         -0.4042                                         !
 ! D184  D(54,55,60,67)        178.877                                          !
 ! D185  D(54,59,64,66)         -0.5007                                         !
 ! D186  D(54,59,64,68)        178.0863                                         !
 ! D187  D(65,59,64,66)        178.6579                                         !
 ! D188  D(65,59,64,68)         -2.7552                                         !
 ! D189  D(55,60,66,64)         -0.1248                                         !
 ! D190  D(55,60,66,69)       -179.6712                                         !
 ! D191  D(67,60,66,64)       -179.3939                                         !
 ! D192  D(67,60,66,69)          1.0597                                         !
 ! D193  D(59,64,66,60)          0.5988                                         !
 ! D194  D(59,64,66,69)       -179.8515                                         !
 ! D195  D(68,64,66,60)       -177.9777                                         !
 ! D196  D(68,64,66,69)          1.572                                          !
 --------------------------------------------------------------------------------
 Stoichiometry    C26H33N4O4S2(2)
 Framework group  C1[X(C26H33N4O4S2)]
 Deg. of freedom   201
 Full point group                 C1      NOp   1
 Largest Abelian subgroup         C1      NOp   1
 Largest concise Abelian subgroup C1      NOp   1
                         Standard orientation:                         
 ---------------------------------------------------------------------
 Center     Atomic      Atomic             Coordinates (Angstroms)
 Number     Number       Type             X           Y           Z
 ---------------------------------------------------------------------
      1          6           0        4.262644    3.162772    0.299709
      2          6           0        3.753159    1.930748   -0.131748
      3          6           0        2.874447    1.877026   -1.233401
      4          6           0        2.477887    3.020595   -1.935431
      5          6           0        2.994208    4.226321   -1.490452
      6          6           0        3.873521    4.297786   -0.388853
      7          1           0        4.937746    3.205727    1.147609
      8          1           0        1.800798    2.968794   -2.782450
      9          1           0        2.715511    5.141975   -2.002201
     10          1           0        4.248968    5.267572   -0.079430
     11          7           0        3.948749    0.664788    0.383651
     12          7           0        2.553247    0.546221   -1.387077
     13          6           0        1.698970    0.008627   -2.439749
     14          1           0        1.917109    0.547679   -3.364415
     15          1           0        1.931063   -1.045719   -2.585831
     16          1           0        0.641735    0.117606   -2.181673
     17          6           0        3.230574   -0.102607   -0.383785
     18         16           0        3.076724   -1.869608   -0.110686
     19          8           0        3.935937   -2.229780    1.003872
     20          8           0        3.234942   -2.517590   -1.415218
     21          6           0        1.356223   -2.019929    0.375003
     22          6           0        0.891731   -3.473005    0.234856
     23          1           0        0.763607   -1.361447   -0.267061
     24          1           0        1.297300   -1.668463    1.407497
     25          6           0       -0.559996   -3.573294    0.578342
     26          1           0        1.073103   -3.825343   -0.785435
     27          1           0        1.483436   -4.101506    0.913973
     28          6           0       -1.510955   -3.993357   -0.318498
     29          1           0       -0.869217   -3.207605    1.556175
     30          1           0       -2.519259   -4.214957    0.025912
     31          1           0       -1.204674   -4.500170   -1.232076
     32         16           0       -2.172802   -2.092228   -1.497592
     33          6           0       -3.703432   -1.629135   -0.638201
     34          8           0       -1.196787   -1.013113   -1.228052
     35          8           0       -2.515307   -2.404495   -2.894576
     36          6           0       -4.027638   -0.144735   -0.863636
     37          1           0       -3.524897   -1.841831    0.421541
     38          1           0       -4.463485   -2.306085   -1.033657
     39          1           0       -5.067443   -0.059076   -1.191142
     40          6           0       -3.844944    0.689464    0.419180
     41          1           0       -3.414505    0.267762   -1.673345
     42          6           0       -2.498452    0.492090    1.065186
     43          6           0       -4.215911    2.166754    0.200686
     44          1           0       -4.537298    0.278534    1.164784
     45          7           0       -2.328020   -0.345112    2.062410
     46          7           0       -1.354658    1.178543    0.733405
     47          6           0       -1.112297    2.020849   -0.420950
     48          1           0       -1.612812    1.600951   -1.296106
     49          1           0       -1.445732    3.048219   -0.251161
     50          1           0       -0.036805    2.028562   -0.617580
     51          1           0       -3.804802    2.766471    1.023212
     52          1           0       -3.751914    2.540292   -0.721585
     53          6           0       -5.725196    2.404674    0.126096
     54          6           0       -0.372130    0.741874    1.599088
     55          6           0       -0.999158   -0.212538    2.422719
     56          1           0       -6.158798    1.820404   -0.694534
     57          1           0       -6.190570    2.038319    1.049526
     58          6           0       -6.062097    3.880443   -0.071778
     59          6           0        0.968666    1.098147    1.749139
     60          6           0       -0.272634   -0.834514    3.445334
     61          1           0       -5.628936    4.259324   -1.003380
     62          1           0       -7.142688    4.040618   -0.115022
     63          1           0       -5.664977    4.484607    0.750440
     64          6           0        1.676003    0.464006    2.762364
     65          1           0        1.444196    1.845077    1.118743
     66          6           0        1.061863   -0.485339    3.603361
     67          1           0       -0.755140   -1.557879    4.095506
     68          1           0        2.729337    0.692243    2.889156
     69          1           0        1.651440   -0.954869    4.384049
 ---------------------------------------------------------------------
 Rotational constants (GHZ):           0.1338858           0.0865906           0.0703009
 Standard basis: def2TZVP (5D, 7F)
 There are  1506 symmetry adapted cartesian basis functions of A   symmetry.
 There are  1326 symmetry adapted basis functions of A   symmetry.
  1326 basis functions,  2136 primitive gaussians,  1506 cartesian basis functions
   141 alpha electrons      140 beta electrons
       nuclear repulsion energy      4798.7790017747 Hartrees.
 NAtoms=   69 NActive=   69 NUniq=   69 SFac= 1.00D+00 NAtFMM=   60 NAOKFM=T Big=T
 Integral buffers will be    131072 words long.
 Raffenetti 2 integral format.
 Two-electron integral symmetry is turned on.
 ------------------------------------------------------------------------------
 Polarizable Continuum Model (PCM)
 =================================
 Model                : PCM.
 Atomic radii         : UFF (Universal Force Field).
 Polarization charges : Total charges.
 Charge compensation  : None.
 Solution method      : On-the-fly selection.
 Cavity type          : Scaled VdW (van der Waals Surface) (Alpha=1.100).
 Cavity algorithm     : GePol (No added spheres)
                        Default sphere list used, NSphG=   69.
                        Lebedev-Laikov grids with approx.  5.0 points / Ang**2.
                        Smoothing algorithm: York/Karplus (Gamma=1.0000).
                        Polarization charges: spherical gaussians, with
                                              point-specific exponents (IZeta= 3).
                        Self-potential: point-specific (ISelfS= 7).
                        Self-field    : sphere-specific E.n sum rule (ISelfD= 2).
 Solvent              : n,n-DiMethylFormamide, Eps=  37.219000 Eps(inf)=   2.046330
 ------------------------------------------------------------------------------
 One-electron integrals computed using PRISM.
   1 Symmetry operations used in ECPInt.
 ECPInt:  NShTT=  141778 NPrTT=  435697 LenC2=  115069 LenP2D=  236716.
 LDataN:  DoStor=T MaxTD1= 6 Len=  172
 Number of processors reduced to  46 by ecpmxn.
 NBasis=  1326 RedAO= T EigKep=  5.38D-06  NBF=  1326
 NBsUse=  1326 1.00D-06 EigRej= -1.00D+00 NBFU=  1326
 ExpMin= 9.52D-02 ExpMax= 6.07D+04 ExpMxC= 2.07D+03 IAcc=3 IRadAn=         5 AccDes= 0.00D+00
 Harris functional with IExCor= 1009 and IRadAn=       5 diagonalized for initial guess.
 HarFok:  IExCor= 1009 AccDes= 0.00D+00 IRadAn=         5 IDoV= 1 UseB2=F ITyADJ=14
 ICtDFT=  3500011 ScaDFX=  1.000000  1.000000  1.000000  1.000000
 FoFCou: FMM=F IPFlag=           0 FMFlag=      100000 FMFlg1=        2001
         NFxFlg=           0 DoJE=T BraDBF=F KetDBF=T FulRan=T
         wScrn=  0.000000 ICntrl=       500 IOpCl=  0 I1Cent=   200000004 NGrid=           0
         NMat0=    1 NMatS0=      1 NMatT0=    0 NMatD0=    1 NMtDS0=    0 NMtDT0=    0
 Petite list used in FoFCou.
 Initial guess <Sx>= 0.0000 <Sy>= 0.0000 <Sz>= 0.5000 <S**2>= 0.7500 S= 0.5000
 Requested convergence on RMS density matrix=1.00D-08 within 128 cycles.
 Requested convergence on MAX density matrix=1.00D-06.
 Requested convergence on             energy=1.00D-06.
 No special actions if energy rises.
 Inv3:  Mode=1 IEnd=    54621867.
 Iteration    1 A*A^-1 deviation from unit magnitude is 3.89D-15 for   3934.
 Iteration    1 A*A^-1 deviation from orthogonality  is 2.45D-15 for   4129   3747.
 Iteration    1 A^-1*A deviation from unit magnitude is 3.89D-15 for   3934.
 Iteration    1 A^-1*A deviation from orthogonality  is 2.00D-15 for   3074    731.
 Restarting incremental Fock formation.
 Error on total polarization charges =  0.02091
 SCF Done:  E(UM062X) =  -2326.81099620     A.U. after   22 cycles
            NFock= 22  Conv=0.31D-08     -V/T= 2.0039
 <Sx>= 0.0000 <Sy>= 0.0000 <Sz>= 0.5000 <S**2>= 0.7764 S= 0.5131
 <L.S>=  0.00000000000    
 Annihilation of the first spin contaminant:
 S**2 before annihilation     0.7764,   after     0.7502

 **********************************************************************

            Population analysis using the SCF Density.

 **********************************************************************

 Orbital symmetries:
 Alpha Orbitals:
       Occupied  (A) (A) (A) (A) (A) (A) (A) (A) (A) (A) (A) (A)
                 (A) (A) (A) (A) (A) (A) (A) (A) (A) (A) (A) (A)
                 (A) (A) (A) (A) (A) (A) (A) (A) (A) (A) (A) (A)
                 (A) (A) (A) (A) (A) (A) (A) (A) (A) (A) (A) (A)
                 (A) (A) (A) (A) (A) (A) (A) (A) (A) (A) (A) (A)
                 (A) (A) (A) (A) (A) (A) (A) (A) (A) (A) (A) (A)
                 (A) (A) (A) (A) (A) (A) (A) (A) (A) (A) (A) (A)
                 (A) (A) (A) (A) (A) (A) (A) (A) (A) (A) (A) (A)
                 (A) (A) (A) (A) (A) (A) (A) (A) (A) (A) (A) (A)
                 (A) (A) (A) (A) (A) (A) (A) (A) (A) (A) (A) (A)
                 (A) (A) (A) (A) (A) (A) (A) (A) (A) (A) (A) (A)
                 (A) (A) (A) (A) (A) (A) (A) (A) (A)
       Virtual   (A) (A) (A) (A) (A) (A) (A) (A) (A) (A) (A) (A)
                 (A) (A) (A) (A) (A) (A) (A) (A) (A) (A) (A) (A)
                 (A) (A) (A) (A) (A) (A) (A) (A) (A) (A) (A) (A)
                 (A) (A) (A) (A) (A) (A) (A) (A) (A) (A) (A) (A)
                 (A) (A) (A) (A) (A) (A) (A) (A) (A) (A) (A) (A)
                 (A) (A) (A) (A) (A) (A) (A) (A) (A) (A) (A) (A)
                 (A) (A) (A) (A) (A) (A) (A) (A) (A) (A) (A) (A)
                 (A) (A) (A) (A) (A) (A) (A) (A) (A) (A) (A) (A)
                 (A) (A) (A) (A) (A) (A) (A) (A) (A) (A) (A) (A)
                 (A) (A) (A) (A) (A) (A) (A) (A) (A) (A) (A) (A)
                 (A) (A) (A) (A) (A) (A) (A) (A) (A) (A) (A) (A)
                 (A) (A) (A) (A) (A) (A) (A) (A) (A) (A) (A) (A)
                 (A) (A) (A) (A) (A) (A) (A) (A) (A) (A) (A) (A)
                 (A) (A) (A) (A) (A) (A) (A) (A) (A) (A) (A) (A)
                 (A) (A) (A) (A) (A) (A) (A) (A) (A) (A) (A) (A)
                 (A) (A) (A) (A) (A) (A) (A) (A) (A) (A) (A) (A)
                 (A) (A) (A) (A) (A) (A) (A) (A) (A) (A) (A) (A)
                 (A) (A) (A) (A) (A) (A) (A) (A) (A) (A) (A) (A)
                 (A) (A) (A) (A) (A) (A) (A) (A) (A) (A) (A) (A)
                 (A) (A) (A) (A) (A) (A) (A) (A) (A) (A) (A) (A)
                 (A) (A) (A) (A) (A) (A) (A) (A) (A) (A) (A) (A)
                 (A) (A) (A) (A) (A) (A) (A) (A) (A) (A) (A) (A)
                 (A) (A) (A) (A) (A) (A) (A) (A) (A) (A) (A) (A)
                 (A) (A) (A) (A) (A) (A) (A) (A) (A) (A) (A) (A)
                 (A) (A) (A) (A) (A) (A) (A) (A) (A) (A) (A) (A)
                 (A) (A) (A) (A) (A) (A) (A) (A) (A) (A) (A) (A)
                 (A) (A) (A) (A) (A) (A) (A) (A) (A) (A) (A) (A)
                 (A) (A) (A) (A) (A) (A) (A) (A) (A) (A) (A) (A)
                 (A) (A) (A) (A) (A) (A) (A) (A) (A) (A) (A) (A)
                 (A) (A) (A) (A) (A) (A) (A) (A) (A) (A) (A) (A)
                 (A) (A) (A) (A) (A) (A) (A) (A) (A) (A) (A) (A)
                 (A) (A) (A) (A) (A) (A) (A) (A) (A) (A) (A) (A)
                 (A) (A) (A) (A) (A) (A) (A) (A) (A) (A) (A) (A)
                 (A) (A) (A) (A) (A) (A) (A) (A) (A) (A) (A) (A)
                 (A) (A) (A) (A) (A) (A) (A) (A) (A) (A) (A) (A)
                 (A) (A) (A) (A) (A) (A) (A) (A) (A) (A) (A) (A)
                 (A) (A) (A) (A) (A) (A) (A) (A) (A) (A) (A) (A)
                 (A) (A) (A) (A) (A) (A) (A) (A) (A) (A) (A) (A)
                 (A) (A) (A) (A) (A) (A) (A) (A) (A) (A) (A) (A)
                 (A) (A) (A) (A) (A) (A) (A) (A) (A) (A) (A) (A)
                 (A) (A) (A) (A) (A) (A) (A) (A) (A) (A) (A) (A)
                 (A) (A) (A) (A) (A) (A) (A) (A) (A) (A) (A) (A)
                 (A) (A) (A) (A) (A) (A) (A) (A) (A) (A) (A) (A)
                 (A) (A) (A) (A) (A) (A) (A) (A) (A) (A) (A) (A)
                 (A) (A) (A) (A) (A) (A) (A) (A) (A) (A) (A) (A)
                 (A) (A) (A) (A) (A) (A) (A) (A) (A) (A) (A) (A)
                 (A) (A) (A) (A) (A) (A) (A) (A) (A) (A) (A) (A)
                 (A) (A) (A) (A) (A) (A) (A) (A) (A) (A) (A) (A)
                 (A) (A) (A) (A) (A) (A) (A) (A) (A) (A) (A) (A)
                 (A) (A) (A) (A) (A) (A) (A) (A) (A) (A) (A) (A)
                 (A) (A) (A) (A) (A) (A) (A) (A) (A) (A) (A) (A)
                 (A) (A) (A) (A) (A) (A) (A) (A) (A) (A) (A) (A)
                 (A) (A) (A) (A) (A) (A) (A) (A) (A) (A) (A) (A)
                 (A) (A) (A) (A) (A) (A) (A) (A) (A) (A) (A) (A)
                 (A) (A) (A) (A) (A) (A) (A) (A) (A) (A) (A) (A)
                 (A) (A) (A) (A) (A) (A) (A) (A) (A) (A) (A) (A)
                 (A) (A) (A) (A) (A) (A) (A) (A) (A) (A) (A) (A)
                 (A) (A) (A) (A) (A) (A) (A) (A) (A) (A) (A) (A)
                 (A) (A) (A) (A) (A) (A) (A) (A) (A) (A) (A) (A)
                 (A) (A) (A) (A) (A) (A) (A) (A) (A) (A) (A) (A)
                 (A) (A) (A) (A) (A) (A) (A) (A) (A) (A) (A) (A)
                 (A) (A) (A) (A) (A) (A) (A) (A) (A) (A) (A) (A)
                 (A) (A) (A) (A) (A) (A) (A) (A) (A) (A) (A) (A)
                 (A) (A) (A) (A) (A) (A) (A) (A) (A) (A) (A) (A)
                 (A) (A) (A) (A) (A) (A) (A) (A) (A) (A) (A) (A)
                 (A) (A) (A) (A) (A) (A) (A) (A) (A) (A) (A) (A)
                 (A) (A) (A) (A) (A) (A) (A) (A) (A) (A) (A) (A)
                 (A) (A) (A) (A) (A) (A) (A) (A) (A) (A) (A) (A)
                 (A) (A) (A) (A) (A) (A) (A) (A) (A) (A) (A) (A)
                 (A) (A) (A) (A) (A) (A) (A) (A) (A) (A) (A) (A)
                 (A) (A) (A) (A) (A) (A) (A) (A) (A) (A) (A) (A)
                 (A) (A) (A) (A) (A) (A) (A) (A) (A) (A) (A) (A)
                 (A) (A) (A) (A) (A) (A) (A) (A) (A) (A) (A) (A)
                 (A) (A) (A) (A) (A) (A) (A) (A) (A) (A) (A) (A)
                 (A) (A) (A) (A) (A) (A) (A) (A) (A) (A) (A) (A)
                 (A) (A) (A) (A) (A) (A) (A) (A) (A) (A) (A) (A)
                 (A) (A) (A) (A) (A) (A) (A) (A) (A) (A) (A) (A)
                 (A) (A) (A) (A) (A) (A) (A) (A) (A) (A) (A) (A)
                 (A) (A) (A) (A) (A) (A) (A) (A) (A) (A) (A) (A)
                 (A) (A) (A) (A) (A) (A) (A) (A) (A) (A) (A) (A)
                 (A) (A) (A) (A) (A) (A) (A) (A) (A) (A) (A) (A)
                 (A) (A) (A) (A) (A) (A) (A) (A) (A) (A) (A) (A)
                 (A) (A) (A) (A) (A) (A) (A) (A) (A) (A) (A) (A)
                 (A) (A) (A) (A) (A) (A) (A) (A) (A) (A) (A) (A)
                 (A) (A) (A) (A) (A) (A) (A) (A) (A) (A) (A) (A)
                 (A) (A) (A) (A) (A) (A) (A) (A) (A) (A) (A) (A)
                 (A) (A) (A) (A) (A) (A) (A) (A) (A) (A) (A) (A)
                 (A) (A) (A) (A) (A) (A) (A) (A) (A) (A) (A) (A)
                 (A) (A) (A) (A) (A) (A) (A) (A) (A) (A) (A) (A)
                 (A) (A) (A) (A) (A) (A) (A) (A) (A) (A) (A) (A)
                 (A) (A) (A) (A) (A) (A) (A) (A) (A) (A) (A) (A)
                 (A) (A) (A) (A) (A) (A) (A) (A) (A) (A) (A) (A)
                 (A) (A) (A) (A) (A) (A) (A) (A) (A) (A) (A) (A)
                 (A) (A) (A) (A) (A) (A) (A) (A) (A) (A) (A) (A)
                 (A) (A) (A) (A) (A) (A) (A) (A) (A) (A) (A) (A)
                 (A) (A) (A) (A) (A) (A) (A) (A) (A) (A) (A) (A)
                 (A) (A) (A) (A) (A) (A) (A) (A) (A) (A) (A) (A)
                 (A) (A) (A) (A) (A) (A) (A) (A) (A) (A) (A) (A)
                 (A) (A) (A) (A) (A) (A) (A) (A) (A)
 Beta  Orbitals:
       Occupied  (A) (A) (A) (A) (A) (A) (A) (A) (A) (A) (A) (A)
                 (A) (A) (A) (A) (A) (A) (A) (A) (A) (A) (A) (A)
                 (A) (A) (A) (A) (A) (A) (A) (A) (A) (A) (A) (A)
                 (A) (A) (A) (A) (A) (A) (A) (A) (A) (A) (A) (A)
                 (A) (A) (A) (A) (A) (A) (A) (A) (A) (A) (A) (A)
                 (A) (A) (A) (A) (A) (A) (A) (A) (A) (A) (A) (A)
                 (A) (A) (A) (A) (A) (A) (A) (A) (A) (A) (A) (A)
                 (A) (A) (A) (A) (A) (A) (A) (A) (A) (A) (A) (A)
                 (A) (A) (A) (A) (A) (A) (A) (A) (A) (A) (A) (A)
                 (A) (A) (A) (A) (A) (A) (A) (A) (A) (A) (A) (A)
                 (A) (A) (A) (A) (A) (A) (A) (A) (A) (A) (A) (A)
                 (A) (A) (A) (A) (A) (A) (A) (A)
       Virtual   (A) (A) (A) (A) (A) (A) (A) (A) (A) (A) (A) (A)
                 (A) (A) (A) (A) (A) (A) (A) (A) (A) (A) (A) (A)
                 (A) (A) (A) (A) (A) (A) (A) (A) (A) (A) (A) (A)
                 (A) (A) (A) (A) (A) (A) (A) (A) (A) (A) (A) (A)
                 (A) (A) (A) (A) (A) (A) (A) (A) (A) (A) (A) (A)
                 (A) (A) (A) (A) (A) (A) (A) (A) (A) (A) (A) (A)
                 (A) (A) (A) (A) (A) (A) (A) (A) (A) (A) (A) (A)
                 (A) (A) (A) (A) (A) (A) (A) (A) (A) (A) (A) (A)
                 (A) (A) (A) (A) (A) (A) (A) (A) (A) (A) (A) (A)
                 (A) (A) (A) (A) (A) (A) (A) (A) (A) (A) (A) (A)
                 (A) (A) (A) (A) (A) (A) (A) (A) (A) (A) (A) (A)
                 (A) (A) (A) (A) (A) (A) (A) (A) (A) (A) (A) (A)
                 (A) (A) (A) (A) (A) (A) (A) (A) (A) (A) (A) (A)
                 (A) (A) (A) (A) (A) (A) (A) (A) (A) (A) (A) (A)
                 (A) (A) (A) (A) (A) (A) (A) (A) (A) (A) (A) (A)
                 (A) (A) (A) (A) (A) (A) (A) (A) (A) (A) (A) (A)
                 (A) (A) (A) (A) (A) (A) (A) (A) (A) (A) (A) (A)
                 (A) (A) (A) (A) (A) (A) (A) (A) (A) (A) (A) (A)
                 (A) (A) (A) (A) (A) (A) (A) (A) (A) (A) (A) (A)
                 (A) (A) (A) (A) (A) (A) (A) (A) (A) (A) (A) (A)
                 (A) (A) (A) (A) (A) (A) (A) (A) (A) (A) (A) (A)
                 (A) (A) (A) (A) (A) (A) (A) (A) (A) (A) (A) (A)
                 (A) (A) (A) (A) (A) (A) (A) (A) (A) (A) (A) (A)
                 (A) (A) (A) (A) (A) (A) (A) (A) (A) (A) (A) (A)
                 (A) (A) (A) (A) (A) (A) (A) (A) (A) (A) (A) (A)
                 (A) (A) (A) (A) (A) (A) (A) (A) (A) (A) (A) (A)
                 (A) (A) (A) (A) (A) (A) (A) (A) (A) (A) (A) (A)
                 (A) (A) (A) (A) (A) (A) (A) (A) (A) (A) (A) (A)
                 (A) (A) (A) (A) (A) (A) (A) (A) (A) (A) (A) (A)
                 (A) (A) (A) (A) (A) (A) (A) (A) (A) (A) (A) (A)
                 (A) (A) (A) (A) (A) (A) (A) (A) (A) (A) (A) (A)
                 (A) (A) (A) (A) (A) (A) (A) (A) (A) (A) (A) (A)
                 (A) (A) (A) (A) (A) (A) (A) (A) (A) (A) (A) (A)
                 (A) (A) (A) (A) (A) (A) (A) (A) (A) (A) (A) (A)
                 (A) (A) (A) (A) (A) (A) (A) (A) (A) (A) (A) (A)
                 (A) (A) (A) (A) (A) (A) (A) (A) (A) (A) (A) (A)
                 (A) (A) (A) (A) (A) (A) (A) (A) (A) (A) (A) (A)
                 (A) (A) (A) (A) (A) (A) (A) (A) (A) (A) (A) (A)
                 (A) (A) (A) (A) (A) (A) (A) (A) (A) (A) (A) (A)
                 (A) (A) (A) (A) (A) (A) (A) (A) (A) (A) (A) (A)
                 (A) (A) (A) (A) (A) (A) (A) (A) (A) (A) (A) (A)
                 (A) (A) (A) (A) (A) (A) (A) (A) (A) (A) (A) (A)
                 (A) (A) (A) (A) (A) (A) (A) (A) (A) (A) (A) (A)
                 (A) (A) (A) (A) (A) (A) (A) (A) (A) (A) (A) (A)
                 (A) (A) (A) (A) (A) (A) (A) (A) (A) (A) (A) (A)
                 (A) (A) (A) (A) (A) (A) (A) (A) (A) (A) (A) (A)
                 (A) (A) (A) (A) (A) (A) (A) (A) (A) (A) (A) (A)
                 (A) (A) (A) (A) (A) (A) (A) (A) (A) (A) (A) (A)
                 (A) (A) (A) (A) (A) (A) (A) (A) (A) (A) (A) (A)
                 (A) (A) (A) (A) (A) (A) (A) (A) (A) (A) (A) (A)
                 (A) (A) (A) (A) (A) (A) (A) (A) (A) (A) (A) (A)
                 (A) (A) (A) (A) (A) (A) (A) (A) (A) (A) (A) (A)
                 (A) (A) (A) (A) (A) (A) (A) (A) (A) (A) (A) (A)
                 (A) (A) (A) (A) (A) (A) (A) (A) (A) (A) (A) (A)
                 (A) (A) (A) (A) (A) (A) (A) (A) (A) (A) (A) (A)
                 (A) (A) (A) (A) (A) (A) (A) (A) (A) (A) (A) (A)
                 (A) (A) (A) (A) (A) (A) (A) (A) (A) (A) (A) (A)
                 (A) (A) (A) (A) (A) (A) (A) (A) (A) (A) (A) (A)
                 (A) (A) (A) (A) (A) (A) (A) (A) (A) (A) (A) (A)
                 (A) (A) (A) (A) (A) (A) (A) (A) (A) (A) (A) (A)
                 (A) (A) (A) (A) (A) (A) (A) (A) (A) (A) (A) (A)
                 (A) (A) (A) (A) (A) (A) (A) (A) (A) (A) (A) (A)
                 (A) (A) (A) (A) (A) (A) (A) (A) (A) (A) (A) (A)
                 (A) (A) (A) (A) (A) (A) (A) (A) (A) (A) (A) (A)
                 (A) (A) (A) (A) (A) (A) (A) (A) (A) (A) (A) (A)
                 (A) (A) (A) (A) (A) (A) (A) (A) (A) (A) (A) (A)
                 (A) (A) (A) (A) (A) (A) (A) (A) (A) (A) (A) (A)
                 (A) (A) (A) (A) (A) (A) (A) (A) (A) (A) (A) (A)
                 (A) (A) (A) (A) (A) (A) (A) (A) (A) (A) (A) (A)
                 (A) (A) (A) (A) (A) (A) (A) (A) (A) (A) (A) (A)
                 (A) (A) (A) (A) (A) (A) (A) (A) (A) (A) (A) (A)
                 (A) (A) (A) (A) (A) (A) (A) (A) (A) (A) (A) (A)
                 (A) (A) (A) (A) (A) (A) (A) (A) (A) (A) (A) (A)
                 (A) (A) (A) (A) (A) (A) (A) (A) (A) (A) (A) (A)
                 (A) (A) (A) (A) (A) (A) (A) (A) (A) (A) (A) (A)
                 (A) (A) (A) (A) (A) (A) (A) (A) (A) (A) (A) (A)
                 (A) (A) (A) (A) (A) (A) (A) (A) (A) (A) (A) (A)
                 (A) (A) (A) (A) (A) (A) (A) (A) (A) (A) (A) (A)
                 (A) (A) (A) (A) (A) (A) (A) (A) (A) (A) (A) (A)
                 (A) (A) (A) (A) (A) (A) (A) (A) (A) (A) (A) (A)
                 (A) (A) (A) (A) (A) (A) (A) (A) (A) (A) (A) (A)
                 (A) (A) (A) (A) (A) (A) (A) (A) (A) (A) (A) (A)
                 (A) (A) (A) (A) (A) (A) (A) (A) (A) (A) (A) (A)
                 (A) (A) (A) (A) (A) (A) (A) (A) (A) (A) (A) (A)
                 (A) (A) (A) (A) (A) (A) (A) (A) (A) (A) (A) (A)
                 (A) (A) (A) (A) (A) (A) (A) (A) (A) (A) (A) (A)
                 (A) (A) (A) (A) (A) (A) (A) (A) (A) (A) (A) (A)
                 (A) (A) (A) (A) (A) (A) (A) (A) (A) (A) (A) (A)
                 (A) (A) (A) (A) (A) (A) (A) (A) (A) (A) (A) (A)
                 (A) (A) (A) (A) (A) (A) (A) (A) (A) (A) (A) (A)
                 (A) (A) (A) (A) (A) (A) (A) (A) (A) (A) (A) (A)
                 (A) (A) (A) (A) (A) (A) (A) (A) (A) (A) (A) (A)
                 (A) (A) (A) (A) (A) (A) (A) (A) (A) (A) (A) (A)
                 (A) (A) (A) (A) (A) (A) (A) (A) (A) (A) (A) (A)
                 (A) (A) (A) (A) (A) (A) (A) (A) (A) (A) (A) (A)
                 (A) (A) (A) (A) (A) (A) (A) (A) (A) (A) (A) (A)
                 (A) (A) (A) (A) (A) (A) (A) (A) (A) (A) (A) (A)
                 (A) (A) (A) (A) (A) (A) (A) (A) (A) (A) (A) (A)
                 (A) (A) (A) (A) (A) (A) (A) (A) (A) (A)
 The electronic state is 2-A.
 Alpha  occ. eigenvalues --  -90.11079 -90.07636 -19.64192 -19.63968 -19.63904
 Alpha  occ. eigenvalues --  -19.63735 -14.83334 -14.80836 -14.76755 -14.74149
 Alpha  occ. eigenvalues --  -10.64527 -10.61640 -10.59542 -10.58433 -10.58217
 Alpha  occ. eigenvalues --  -10.58135 -10.58125 -10.58117 -10.58054 -10.57784
 Alpha  occ. eigenvalues --  -10.57551 -10.56868 -10.56552 -10.56283 -10.56129
 Alpha  occ. eigenvalues --  -10.56036 -10.55637 -10.55595 -10.55227 -10.55102
 Alpha  occ. eigenvalues --  -10.54871 -10.54576 -10.54390 -10.54022 -10.53358
 Alpha  occ. eigenvalues --  -10.52279  -8.44147  -8.41098  -6.36291  -6.36196
 Alpha  occ. eigenvalues --   -6.36192  -6.33418  -6.33015  -6.32978  -1.24468
 Alpha  occ. eigenvalues --   -1.22479  -1.16227  -1.14229  -1.14056  -1.12873
 Alpha  occ. eigenvalues --   -1.02679  -1.00570  -0.96698  -0.96235  -0.94400
 Alpha  occ. eigenvalues --   -0.93620  -0.89485  -0.88808  -0.86427  -0.85974
 Alpha  occ. eigenvalues --   -0.85598  -0.85063  -0.82778  -0.82472  -0.80957
 Alpha  occ. eigenvalues --   -0.79896  -0.77142  -0.74405  -0.73716  -0.70851
 Alpha  occ. eigenvalues --   -0.69827  -0.69582  -0.68818  -0.68034  -0.66835
 Alpha  occ. eigenvalues --   -0.66605  -0.66508  -0.65015  -0.61669  -0.59965
 Alpha  occ. eigenvalues --   -0.59715  -0.59395  -0.58787  -0.58545  -0.58138
 Alpha  occ. eigenvalues --   -0.57633  -0.57283  -0.57159  -0.56287  -0.55763
 Alpha  occ. eigenvalues --   -0.55125  -0.54409  -0.53959  -0.53213  -0.52470
 Alpha  occ. eigenvalues --   -0.52449  -0.52009  -0.51763  -0.51534  -0.50942
 Alpha  occ. eigenvalues --   -0.50402  -0.50087  -0.49411  -0.48899  -0.48695
 Alpha  occ. eigenvalues --   -0.48324  -0.47891  -0.47576  -0.47318  -0.46192
 Alpha  occ. eigenvalues --   -0.45411  -0.44482  -0.44172  -0.43928  -0.43716
 Alpha  occ. eigenvalues --   -0.43353  -0.43066  -0.42926  -0.42816  -0.42549
 Alpha  occ. eigenvalues --   -0.42108  -0.42002  -0.41784  -0.40882  -0.40311
 Alpha  occ. eigenvalues --   -0.40093  -0.39989  -0.39237  -0.38836  -0.38550
 Alpha  occ. eigenvalues --   -0.38214  -0.38097  -0.37132  -0.36761  -0.36383
 Alpha  occ. eigenvalues --   -0.35425  -0.30335  -0.29750  -0.28688  -0.28414
 Alpha  occ. eigenvalues --   -0.26491
 Alpha virt. eigenvalues --   -0.02741  -0.00278   0.02200   0.02719   0.03479
 Alpha virt. eigenvalues --    0.04093   0.05551   0.06030   0.06379   0.07189
 Alpha virt. eigenvalues --    0.07531   0.07945   0.08242   0.08710   0.08829
 Alpha virt. eigenvalues --    0.09030   0.09143   0.09311   0.09774   0.10155
 Alpha virt. eigenvalues --    0.10231   0.10708   0.11041   0.11449   0.11557
 Alpha virt. eigenvalues --    0.12008   0.12508   0.12813   0.12889   0.13449
 Alpha virt. eigenvalues --    0.13604   0.13818   0.14115   0.14184   0.14567
 Alpha virt. eigenvalues --    0.14735   0.15125   0.15422   0.15662   0.16307
 Alpha virt. eigenvalues --    0.16437   0.16831   0.17217   0.17460   0.17900
 Alpha virt. eigenvalues --    0.18141   0.18434   0.18686   0.18969   0.19066
 Alpha virt. eigenvalues --    0.19356   0.19603   0.20133   0.20499   0.20741
 Alpha virt. eigenvalues --    0.20986   0.21605   0.21963   0.22042   0.22333
 Alpha virt. eigenvalues --    0.22544   0.22711   0.23112   0.23798   0.24003
 Alpha virt. eigenvalues --    0.24318   0.24399   0.24534   0.24982   0.25106
 Alpha virt. eigenvalues --    0.25527   0.25748   0.25786   0.26268   0.26515
 Alpha virt. eigenvalues --    0.26976   0.27450   0.27772   0.28261   0.28396
 Alpha virt. eigenvalues --    0.28634   0.28741   0.29190   0.29403   0.29895
 Alpha virt. eigenvalues --    0.30234   0.30447   0.30878   0.31241   0.31584
 Alpha virt. eigenvalues --    0.31796   0.32273   0.32721   0.32858   0.33349
 Alpha virt. eigenvalues --    0.33665   0.34124   0.34322   0.34581   0.34927
 Alpha virt. eigenvalues --    0.35120   0.35424   0.35486   0.35904   0.36286
 Alpha virt. eigenvalues --    0.36627   0.36775   0.37090   0.37379   0.37452
 Alpha virt. eigenvalues --    0.37958   0.38093   0.38456   0.38857   0.39175
 Alpha virt. eigenvalues --    0.39585   0.39755   0.40116   0.40437   0.40538
 Alpha virt. eigenvalues --    0.40839   0.41201   0.41239   0.41539   0.41816
 Alpha virt. eigenvalues --    0.42108   0.42202   0.42530   0.42658   0.42853
 Alpha virt. eigenvalues --    0.43110   0.43378   0.43931   0.44184   0.44490
 Alpha virt. eigenvalues --    0.44920   0.45114   0.45316   0.45558   0.45633
 Alpha virt. eigenvalues --    0.46099   0.46173   0.46469   0.46748   0.47025
 Alpha virt. eigenvalues --    0.47337   0.47521   0.47618   0.47926   0.48210
 Alpha virt. eigenvalues --    0.48340   0.48550   0.48980   0.49110   0.49292
 Alpha virt. eigenvalues --    0.49701   0.49868   0.50260   0.50290   0.50513
 Alpha virt. eigenvalues --    0.51000   0.51173   0.51295   0.51600   0.51847
 Alpha virt. eigenvalues --    0.52091   0.52391   0.52433   0.52923   0.52969
 Alpha virt. eigenvalues --    0.53450   0.53696   0.53839   0.54130   0.54248
 Alpha virt. eigenvalues --    0.54862   0.55054   0.55272   0.55515   0.55740
 Alpha virt. eigenvalues --    0.56209   0.56344   0.56635   0.56762   0.57392
 Alpha virt. eigenvalues --    0.57714   0.58153   0.58532   0.59206   0.59730
 Alpha virt. eigenvalues --    0.60060   0.60141   0.60307   0.60581   0.61011
 Alpha virt. eigenvalues --    0.61341   0.61732   0.62499   0.62730   0.62914
 Alpha virt. eigenvalues --    0.63291   0.63519   0.63965   0.64401   0.64933
 Alpha virt. eigenvalues --    0.65192   0.65201   0.65649   0.65939   0.66209
 Alpha virt. eigenvalues --    0.66674   0.67248   0.67792   0.68210   0.68285
 Alpha virt. eigenvalues --    0.69049   0.69460   0.69999   0.70320   0.70739
 Alpha virt. eigenvalues --    0.70895   0.71142   0.71546   0.71675   0.72467
 Alpha virt. eigenvalues --    0.73081   0.73408   0.73637   0.73737   0.73928
 Alpha virt. eigenvalues --    0.74289   0.75007   0.75258   0.75329   0.75581
 Alpha virt. eigenvalues --    0.76470   0.76738   0.76993   0.77244   0.77794
 Alpha virt. eigenvalues --    0.78685   0.78932   0.79154   0.79681   0.79933
 Alpha virt. eigenvalues --    0.80251   0.80880   0.80989   0.81386   0.81597
 Alpha virt. eigenvalues --    0.81785   0.82520   0.82821   0.83343   0.83543
 Alpha virt. eigenvalues --    0.84334   0.84719   0.84875   0.85559   0.85836
 Alpha virt. eigenvalues --    0.85939   0.86664   0.86902   0.87753   0.88011
 Alpha virt. eigenvalues --    0.88347   0.88479   0.89106   0.89221   0.89769
 Alpha virt. eigenvalues --    0.90311   0.90695   0.91371   0.91671   0.91986
 Alpha virt. eigenvalues --    0.92157   0.92338   0.92820   0.93394   0.93798
 Alpha virt. eigenvalues --    0.94504   0.94824   0.95270   0.95312   0.95770
 Alpha virt. eigenvalues --    0.95880   0.96525   0.96955   0.97970   0.98257
 Alpha virt. eigenvalues --    0.99125   0.99345   0.99853   1.00492   1.00768
 Alpha virt. eigenvalues --    1.01112   1.01639   1.02144   1.02386   1.02884
 Alpha virt. eigenvalues --    1.02900   1.03418   1.03901   1.04719   1.04931
 Alpha virt. eigenvalues --    1.05799   1.06120   1.06652   1.06963   1.07353
 Alpha virt. eigenvalues --    1.08401   1.08517   1.09102   1.09436   1.10614
 Alpha virt. eigenvalues --    1.10964   1.11422   1.12024   1.12130   1.12522
 Alpha virt. eigenvalues --    1.12920   1.13342   1.13699   1.14772   1.14893
 Alpha virt. eigenvalues --    1.15652   1.15725   1.16166   1.16485   1.16798
 Alpha virt. eigenvalues --    1.17165   1.17541   1.17634   1.18676   1.19281
 Alpha virt. eigenvalues --    1.19457   1.19734   1.20032   1.20644   1.21017
 Alpha virt. eigenvalues --    1.21786   1.21884   1.22628   1.23349   1.23694
 Alpha virt. eigenvalues --    1.23997   1.24209   1.25209   1.25640   1.25986
 Alpha virt. eigenvalues --    1.26739   1.27040   1.27243   1.27633   1.28233
 Alpha virt. eigenvalues --    1.28969   1.29211   1.29761   1.30164   1.30583
 Alpha virt. eigenvalues --    1.31177   1.31363   1.32464   1.32803   1.32905
 Alpha virt. eigenvalues --    1.33281   1.34099   1.34608   1.34985   1.35214
 Alpha virt. eigenvalues --    1.35775   1.36095   1.36495   1.37340   1.37567
 Alpha virt. eigenvalues --    1.38651   1.39222   1.40222   1.40572   1.41551
 Alpha virt. eigenvalues --    1.41678   1.42654   1.43224   1.43345   1.43969
 Alpha virt. eigenvalues --    1.44577   1.45180   1.45508   1.45876   1.46538
 Alpha virt. eigenvalues --    1.46763   1.47598   1.48347   1.48788   1.49218
 Alpha virt. eigenvalues --    1.49800   1.49988   1.50571   1.50890   1.51120
 Alpha virt. eigenvalues --    1.51378   1.52181   1.52745   1.53124   1.53806
 Alpha virt. eigenvalues --    1.54478   1.55266   1.55460   1.55786   1.55975
 Alpha virt. eigenvalues --    1.56507   1.56964   1.57323   1.57693   1.57970
 Alpha virt. eigenvalues --    1.58185   1.58679   1.58988   1.59661   1.59733
 Alpha virt. eigenvalues --    1.60348   1.60566   1.61306   1.61513   1.61910
 Alpha virt. eigenvalues --    1.62447   1.62493   1.62633   1.63282   1.63483
 Alpha virt. eigenvalues --    1.63974   1.64312   1.64764   1.64952   1.65212
 Alpha virt. eigenvalues --    1.65393   1.66131   1.66191   1.66781   1.67296
 Alpha virt. eigenvalues --    1.67717   1.68092   1.68347   1.68843   1.68921
 Alpha virt. eigenvalues --    1.69464   1.69594   1.69975   1.70332   1.70747
 Alpha virt. eigenvalues --    1.71591   1.71720   1.72554   1.72871   1.73035
 Alpha virt. eigenvalues --    1.73257   1.73812   1.73871   1.74370   1.74688
 Alpha virt. eigenvalues --    1.75049   1.75301   1.75405   1.75987   1.76247
 Alpha virt. eigenvalues --    1.76779   1.77374   1.77687   1.77711   1.78570
 Alpha virt. eigenvalues --    1.79164   1.79742   1.80274   1.80626   1.80772
 Alpha virt. eigenvalues --    1.81184   1.81867   1.82605   1.83187   1.83532
 Alpha virt. eigenvalues --    1.83636   1.84540   1.84793   1.85420   1.85566
 Alpha virt. eigenvalues --    1.86138   1.86770   1.87293   1.87557   1.87763
 Alpha virt. eigenvalues --    1.88023   1.88604   1.88661   1.89016   1.89352
 Alpha virt. eigenvalues --    1.89840   1.90242   1.91010   1.91311   1.91603
 Alpha virt. eigenvalues --    1.91822   1.92795   1.92946   1.93836   1.94028
 Alpha virt. eigenvalues --    1.94401   1.94692   1.95312   1.95695   1.96402
 Alpha virt. eigenvalues --    1.96828   1.97845   1.98181   1.99175   1.99525
 Alpha virt. eigenvalues --    2.00121   2.00682   2.01227   2.01855   2.02285
 Alpha virt. eigenvalues --    2.02786   2.03475   2.03802   2.04201   2.04929
 Alpha virt. eigenvalues --    2.05465   2.05878   2.06595   2.06986   2.07286
 Alpha virt. eigenvalues --    2.07956   2.08626   2.09023   2.09263   2.09970
 Alpha virt. eigenvalues --    2.10282   2.10496   2.11035   2.12005   2.12491
 Alpha virt. eigenvalues --    2.13045   2.13565   2.13860   2.14610   2.15265
 Alpha virt. eigenvalues --    2.15529   2.16248   2.16657   2.17575   2.17747
 Alpha virt. eigenvalues --    2.18365   2.18756   2.19368   2.20020   2.20798
 Alpha virt. eigenvalues --    2.21268   2.21532   2.22558   2.22732   2.22946
 Alpha virt. eigenvalues --    2.23313   2.24225   2.24574   2.25268   2.25916
 Alpha virt. eigenvalues --    2.26203   2.26642   2.27174   2.28074   2.28468
 Alpha virt. eigenvalues --    2.28565   2.28878   2.29561   2.29920   2.30511
 Alpha virt. eigenvalues --    2.30735   2.31220   2.31568   2.32199   2.33234
 Alpha virt. eigenvalues --    2.33654   2.34368   2.34808   2.35227   2.35385
 Alpha virt. eigenvalues --    2.35702   2.35964   2.36525   2.36983   2.37523
 Alpha virt. eigenvalues --    2.37708   2.38502   2.39169   2.39399   2.40336
 Alpha virt. eigenvalues --    2.40592   2.40658   2.41002   2.41345   2.42188
 Alpha virt. eigenvalues --    2.42521   2.42791   2.43690   2.43909   2.44136
 Alpha virt. eigenvalues --    2.44673   2.45068   2.45493   2.46157   2.46362
 Alpha virt. eigenvalues --    2.47025   2.47603   2.47978   2.48563   2.48824
 Alpha virt. eigenvalues --    2.49232   2.50008   2.50319   2.50519   2.51096
 Alpha virt. eigenvalues --    2.51157   2.51758   2.52101   2.52689   2.52891
 Alpha virt. eigenvalues --    2.53586   2.54189   2.54414   2.54636   2.55173
 Alpha virt. eigenvalues --    2.55881   2.56577   2.56712   2.57222   2.57570
 Alpha virt. eigenvalues --    2.58163   2.58817   2.59276   2.59380   2.60004
 Alpha virt. eigenvalues --    2.60428   2.60454   2.61103   2.61175   2.61541
 Alpha virt. eigenvalues --    2.62111   2.62573   2.63045   2.63301   2.63872
 Alpha virt. eigenvalues --    2.64280   2.64505   2.65034   2.65763   2.66099
 Alpha virt. eigenvalues --    2.66428   2.66507   2.66813   2.67252   2.67395
 Alpha virt. eigenvalues --    2.68115   2.68138   2.68503   2.68854   2.69055
 Alpha virt. eigenvalues --    2.69334   2.69765   2.70268   2.70539   2.70982
 Alpha virt. eigenvalues --    2.71296   2.71625   2.72091   2.72169   2.72644
 Alpha virt. eigenvalues --    2.73041   2.73343   2.73775   2.74454   2.74658
 Alpha virt. eigenvalues --    2.74714   2.75430   2.76142   2.76645   2.77264
 Alpha virt. eigenvalues --    2.77655   2.78134   2.78278   2.79021   2.79450
 Alpha virt. eigenvalues --    2.79645   2.80098   2.80326   2.81192   2.82013
 Alpha virt. eigenvalues --    2.82046   2.82379   2.82785   2.83771   2.84357
 Alpha virt. eigenvalues --    2.84538   2.84804   2.85427   2.86451   2.87139
 Alpha virt. eigenvalues --    2.87409   2.87690   2.88198   2.88555   2.89124
 Alpha virt. eigenvalues --    2.89451   2.89681   2.90528   2.90785   2.91094
 Alpha virt. eigenvalues --    2.92050   2.92976   2.93338   2.94137   2.94795
 Alpha virt. eigenvalues --    2.95496   2.95989   2.96379   2.96470   2.96970
 Alpha virt. eigenvalues --    2.97535   2.98223   2.98346   2.98703   2.99355
 Alpha virt. eigenvalues --    2.99825   3.00852   3.01042   3.02795   3.02948
 Alpha virt. eigenvalues --    3.03031   3.03547   3.04554   3.05096   3.05167
 Alpha virt. eigenvalues --    3.05818   3.06444   3.07267   3.07327   3.07846
 Alpha virt. eigenvalues --    3.08161   3.08387   3.09015   3.09547   3.10191
 Alpha virt. eigenvalues --    3.10462   3.10905   3.11032   3.11462   3.11726
 Alpha virt. eigenvalues --    3.11836   3.12618   3.13162   3.13313   3.13691
 Alpha virt. eigenvalues --    3.13948   3.14295   3.14396   3.14895   3.15556
 Alpha virt. eigenvalues --    3.15715   3.16049   3.16424   3.16779   3.17333
 Alpha virt. eigenvalues --    3.17757   3.18132   3.18384   3.18830   3.19119
 Alpha virt. eigenvalues --    3.19331   3.19832   3.20294   3.20464   3.21013
 Alpha virt. eigenvalues --    3.21644   3.21878   3.22510   3.22759   3.22812
 Alpha virt. eigenvalues --    3.23329   3.23371   3.23773   3.24094   3.24550
 Alpha virt. eigenvalues --    3.24817   3.25531   3.25678   3.26210   3.26944
 Alpha virt. eigenvalues --    3.27405   3.27665   3.27996   3.28220   3.28763
[...]
 
              Baa    -0.0002    -0.116    -0.041    -0.039 -0.5304  0.3169  0.7863
     7 H(1)   Bbb    -0.0002    -0.103    -0.037    -0.035 -0.4756  0.6565 -0.5855
              Bcc     0.0004     0.220     0.078     0.073  0.7018  0.6845  0.1975
 
              Baa    -0.0004    -0.240    -0.086    -0.080 -0.4374  0.5443  0.7159
     8 H(1)   Bbb    -0.0004    -0.203    -0.072    -0.068  0.7404 -0.2339  0.6302
              Bcc     0.0008     0.443     0.158     0.148  0.5105  0.8056 -0.3007
 
              Baa    -0.0002    -0.111    -0.040    -0.037 -0.3857  0.3634  0.8481
     9 H(1)   Bbb    -0.0002    -0.094    -0.033    -0.031  0.7964 -0.3329  0.5049
              Bcc     0.0004     0.205     0.073     0.068  0.4658  0.8701 -0.1610
 
              Baa    -0.0002    -0.083    -0.030    -0.028 -0.6308  0.3890  0.6714
    10 H(1)   Bbb    -0.0001    -0.080    -0.028    -0.027  0.5214 -0.4283  0.7380
              Bcc     0.0003     0.163     0.058     0.054  0.5747  0.8156  0.0673
 
              Baa    -0.0011    -0.043    -0.015    -0.014  0.1157 -0.4690  0.8756
    11 N(14)  Bbb     0.0004     0.015     0.005     0.005  0.1900  0.8757  0.4440
              Bcc     0.0007     0.028     0.010     0.009  0.9749 -0.1150 -0.1904
 
              Baa    -0.0013    -0.049    -0.018    -0.016  0.1388  0.1391  0.9805
    12 N(14)  Bbb    -0.0004    -0.016    -0.006    -0.005 -0.3651  0.9275 -0.0799
              Bcc     0.0017     0.065     0.023     0.022  0.9206  0.3469 -0.1795
 
              Baa    -0.0013    -0.170    -0.061    -0.057 -0.1682  0.7247  0.6682
    13 C(13)  Bbb    -0.0009    -0.119    -0.042    -0.040  0.6527 -0.4261  0.6264
              Bcc     0.0022     0.289     0.103     0.096  0.7387  0.5415 -0.4013
 
              Baa    -0.0008    -0.442    -0.158    -0.147 -0.2401  0.7907  0.5632
    14 H(1)   Bbb    -0.0007    -0.359    -0.128    -0.120  0.6957 -0.2645  0.6679
              Bcc     0.0015     0.801     0.286     0.267  0.6771  0.5521 -0.4866
 
              Baa    -0.0015    -0.818    -0.292    -0.273 -0.0827  0.8700  0.4861
    15 H(1)   Bbb    -0.0010    -0.518    -0.185    -0.173  0.5829 -0.3534  0.7317
              Bcc     0.0025     1.336     0.477     0.446  0.8084  0.3438 -0.4779
 
              Baa    -0.0023    -1.231    -0.439    -0.411 -0.1652  0.6476  0.7438
    16 H(1)   Bbb    -0.0018    -0.944    -0.337    -0.315  0.7043 -0.4505  0.5487
              Bcc     0.0041     2.175     0.776     0.726  0.6904  0.6145 -0.3817
 
              Baa    -0.0020    -0.274    -0.098    -0.091 -0.2462  0.2522  0.9358
    17 C(13)  Bbb    -0.0008    -0.105    -0.038    -0.035  0.8697 -0.3687  0.3282
              Bcc     0.0028     0.379     0.135     0.127  0.4278  0.8947 -0.1286
 
              Baa    -0.0114    -0.465    -0.166    -0.155 -0.0778  0.9801 -0.1825
    18 S(33)  Bbb    -0.0098    -0.401    -0.143    -0.134  0.2798  0.1971  0.9396
              Bcc     0.0211     0.866     0.309     0.289  0.9569  0.0220 -0.2896
 
              Baa    -0.0061     0.445     0.159     0.148 -0.2106  0.9760  0.0562
    19 O(17)  Bbb    -0.0051     0.372     0.133     0.124  0.2012 -0.0130  0.9795
              Bcc     0.0113    -0.817    -0.291    -0.272  0.9566  0.2176 -0.1936
 
              Baa    -0.0019     0.136     0.049     0.045 -0.0781  0.8415  0.5346
    20 O(17)  Bbb    -0.0008     0.060     0.022     0.020  0.5432 -0.4137  0.7306
              Bcc     0.0027    -0.196    -0.070    -0.065  0.8360  0.3474 -0.4248
 
              Baa    -0.0147    -1.975    -0.705    -0.659 -0.4155  0.0922  0.9049
    21 C(13)  Bbb    -0.0124    -1.658    -0.592    -0.553  0.7347 -0.5525  0.3937
              Bcc     0.0271     3.633     1.296     1.212  0.5363  0.8284  0.1618
 
              Baa    -0.0085    -1.141    -0.407    -0.381  0.0528  0.5425  0.8384
    22 C(13)  Bbb    -0.0005    -0.065    -0.023    -0.022  0.9423  0.2510 -0.2217
              Bcc     0.0090     1.206     0.430     0.402 -0.3307  0.8017 -0.4979
 
              Baa    -0.0070    -3.721    -1.328    -1.241 -0.2474  0.4228  0.8718
    23 H(1)   Bbb     0.0006     0.333     0.119     0.111  0.6226 -0.6201  0.4774
              Bcc     0.0063     3.388     1.209     1.130  0.7424  0.6609 -0.1099
 
              Baa    -0.0037    -1.978    -0.706    -0.660 -0.0005 -0.6466  0.7628
    24 H(1)   Bbb    -0.0030    -1.585    -0.565    -0.529  0.7621 -0.4941 -0.4183
              Bcc     0.0067     3.562     1.271     1.188  0.6474  0.5812  0.4930
 
              Baa    -0.2919   -39.171   -13.977   -13.066  0.9312  0.2307  0.2822
    25 C(13)  Bbb    -0.2878   -38.619   -13.780   -12.882 -0.3443  0.3021  0.8889
              Bcc     0.5797    77.790    27.757    25.948 -0.1198  0.9249 -0.3607
 
              Baa    -0.0057    -3.065    -1.094    -1.022  0.4981  0.6858  0.5306
    26 H(1)   Bbb    -0.0028    -1.471    -0.525    -0.491 -0.2543  0.7005 -0.6667
              Bcc     0.0085     4.536     1.619     1.513  0.8290 -0.1971 -0.5234
 
              Baa    -0.0062    -3.294    -1.175    -1.099  0.0603  0.7678  0.6379
    27 H(1)   Bbb    -0.0042    -2.216    -0.791    -0.739 -0.2947 -0.5968  0.7463
              Bcc     0.0103     5.510     1.966     1.838  0.9537 -0.2330  0.1903
 
              Baa    -0.1351   -18.131    -6.470    -6.048 -0.1651  0.9073 -0.3867
    28 C(13)  Bbb     0.0516     6.923     2.470     2.309  0.7211 -0.1565 -0.6749
              Bcc     0.0835    11.208     3.999     3.739  0.6728  0.3903  0.6285
 
              Baa    -0.0374   -19.938    -7.114    -6.650  0.9529  0.2365  0.1900
    29 H(1)   Bbb    -0.0018    -0.964    -0.344    -0.321 -0.1499  0.9116 -0.3829
              Bcc     0.0392    20.901     7.458     6.972 -0.2637  0.3363  0.9041
 
              Baa    -0.0118    -6.304    -2.249    -2.103  0.7924 -0.3930 -0.4665
    30 H(1)   Bbb     0.0038     2.033     0.725     0.678  0.0462  0.8012 -0.5966
              Bcc     0.0080     4.271     1.524     1.425  0.6083  0.4512  0.6530
 
              Baa    -0.0120    -6.410    -2.287    -2.138 -0.5869 -0.0651  0.8071
    31 H(1)   Bbb     0.0043     2.308     0.824     0.770 -0.3426  0.9231 -0.1747
              Bcc     0.0077     4.102     1.464     1.368  0.7336  0.3791  0.5640
 
              Baa    -0.8563   -35.109   -12.528   -11.711 -0.6324  0.1003  0.7681
    32 S(33)  Bbb    -0.8290   -33.988   -12.128   -11.337  0.6834  0.5390  0.4923
              Bcc     1.6853    69.097    24.656    23.048 -0.3647  0.8363 -0.4094
 
              Baa    -0.0589    -7.898    -2.818    -2.634  0.2880  0.9509 -0.1136
    33 C(13)  Bbb    -0.0553    -7.425    -2.649    -2.477  0.4498 -0.0296  0.8927
              Bcc     0.1142    15.323     5.467     5.111  0.8455 -0.3081 -0.4362
 
              Baa    -0.2345    16.968     6.055     5.660 -0.6005 -0.1158  0.7912
    34 O(17)  Bbb    -0.2184    15.806     5.640     5.272  0.7537  0.2485  0.6084
              Bcc     0.4529   -32.774   -11.695   -10.932 -0.2671  0.9617 -0.0619
 
              Baa    -0.3820    27.645     9.864     9.221 -0.6818  0.0481  0.7300
    35 O(17)  Bbb    -0.3624    26.221     9.356     8.746  0.5532  0.6868  0.4714
              Bcc     0.7444   -53.866   -19.221   -17.968 -0.4787  0.7252 -0.4949
 
              Baa    -0.0116    -1.551    -0.553    -0.517  0.4949  0.2920  0.8184
    36 C(13)  Bbb    -0.0104    -1.400    -0.500    -0.467  0.7519  0.3282 -0.5718
              Bcc     0.0220     2.951     1.053     0.984 -0.4356  0.8983 -0.0571
 
              Baa    -0.0103    -5.493    -1.960    -1.832  0.4092  0.9006  0.1465
    37 H(1)   Bbb    -0.0002    -0.110    -0.039    -0.037  0.8078 -0.4323  0.4008
              Bcc     0.0105     5.603     1.999     1.869 -0.4243  0.0457  0.9044
 
              Baa    -0.0089    -4.748    -1.694    -1.584  0.1532 -0.6070  0.7798
    38 H(1)   Bbb    -0.0028    -1.510    -0.539    -0.504 -0.2299  0.7456  0.6255
              Bcc     0.0117     6.258     2.233     2.088  0.9611  0.2752  0.0253
 
              Baa    -0.0028    -1.494    -0.533    -0.498 -0.3088 -0.2384  0.9208
    39 H(1)   Bbb    -0.0012    -0.664    -0.237    -0.222  0.4790  0.7974  0.3671
              Bcc     0.0040     2.159     0.770     0.720  0.8217 -0.5544  0.1320
 
              Baa    -0.0027    -0.368    -0.131    -0.123 -0.3323 -0.5467  0.7686
    40 C(13)  Bbb    -0.0016    -0.216    -0.077    -0.072  0.9186 -0.0027  0.3952
              Bcc     0.0044     0.584     0.209     0.195 -0.2140  0.8373  0.5031
 
              Baa    -0.0034    -1.821    -0.650    -0.607  0.3474  0.3717  0.8609
    41 H(1)   Bbb    -0.0020    -1.047    -0.374    -0.349  0.8480  0.2673 -0.4576
              Bcc     0.0054     2.868     1.023     0.957 -0.4002  0.8890 -0.2224
 
              Baa    -0.0022    -0.295    -0.105    -0.098 -0.5192 -0.5883  0.6200
    42 C(13)  Bbb    -0.0015    -0.195    -0.070    -0.065  0.8219 -0.1448  0.5509
              Bcc     0.0037     0.490     0.175     0.164 -0.2343  0.7956  0.5587
 
              Baa    -0.0015    -0.201    -0.072    -0.067  0.2599 -0.0713  0.9630
    43 C(13)  Bbb    -0.0013    -0.177    -0.063    -0.059  0.9271  0.2973 -0.2282
              Bcc     0.0028     0.378     0.135     0.126 -0.2700  0.9521  0.1434
 
              Baa    -0.0015    -0.821    -0.293    -0.274  0.6934  0.7139 -0.0976
    44 H(1)   Bbb    -0.0012    -0.619    -0.221    -0.206  0.4889 -0.3666  0.7916
              Bcc     0.0027     1.440     0.514     0.480 -0.5293  0.5966  0.6032
 
              Baa    -0.0020    -0.076    -0.027    -0.025  0.4303  0.8847 -0.1793
    45 N(14)  Bbb     0.0001     0.003     0.001     0.001  0.8591 -0.3404  0.3822
              Bcc     0.0019     0.073     0.026     0.024 -0.2771  0.3185  0.9065
 
              Baa    -0.0023    -0.089    -0.032    -0.030  0.8637  0.2735 -0.4234
    46 N(14)  Bbb    -0.0020    -0.076    -0.027    -0.025  0.5037 -0.4347  0.7466
              Bcc     0.0043     0.166     0.059     0.055 -0.0201  0.8581  0.5132
 
              Baa    -0.0022    -0.297    -0.106    -0.099  0.8678 -0.0306 -0.4959
    47 C(13)  Bbb    -0.0011    -0.142    -0.051    -0.047  0.4307 -0.4512  0.7816
              Bcc     0.0033     0.439     0.156     0.146  0.2477  0.8919  0.3783
 
              Baa    -0.0022    -1.192    -0.425    -0.398  0.7680 -0.0151 -0.6403
    48 H(1)   Bbb    -0.0016    -0.845    -0.302    -0.282  0.6395 -0.0363  0.7679
              Bcc     0.0038     2.037     0.727     0.680  0.0349  0.9992  0.0182
 
              Baa    -0.0008    -0.436    -0.156    -0.146 -0.6107 -0.0936  0.7863
    49 H(1)   Bbb    -0.0007    -0.358    -0.128    -0.119  0.7915 -0.1006  0.6028
              Bcc     0.0015     0.794     0.283     0.265  0.0227  0.9905  0.1355
 
              Baa    -0.0012    -0.661    -0.236    -0.221 -0.4248  0.0810  0.9017
    50 H(1)   Bbb    -0.0009    -0.506    -0.180    -0.169  0.8354 -0.3487  0.4249
              Bcc     0.0022     1.167     0.416     0.389  0.3489  0.9337  0.0804
 
              Baa    -0.0007    -0.368    -0.131    -0.123  0.6287  0.4732 -0.6171
    51 H(1)   Bbb    -0.0005    -0.260    -0.093    -0.087  0.7203 -0.0552  0.6915
              Bcc     0.0012     0.628     0.224     0.210 -0.2931  0.8792  0.3755
 
              Baa    -0.0008    -0.453    -0.162    -0.151  0.5299  0.1217  0.8393
    52 H(1)   Bbb    -0.0008    -0.408    -0.145    -0.136  0.7886  0.2933 -0.5404
              Bcc     0.0016     0.861     0.307     0.287 -0.3119  0.9482  0.0594
 
              Baa    -0.0007    -0.093    -0.033    -0.031  0.6243  0.6089 -0.4894
    53 C(13)  Bbb    -0.0004    -0.055    -0.020    -0.018  0.5530  0.0980  0.8274
              Bcc     0.0011     0.148     0.053     0.049 -0.5518  0.7871  0.2756
 
              Baa    -0.0016    -0.208    -0.074    -0.070  0.8509  0.0464 -0.5233
    54 C(13)  Bbb    -0.0008    -0.103    -0.037    -0.034  0.4470 -0.5873  0.6748
              Bcc     0.0023     0.311     0.111     0.104  0.2760  0.8081  0.5204
 
              Baa    -0.0019    -0.251    -0.089    -0.084  0.8920  0.2219 -0.3938
    55 C(13)  Bbb    -0.0010    -0.130    -0.046    -0.043 -0.4350  0.6579 -0.6148
              Bcc     0.0028     0.381     0.136     0.127  0.1227  0.7197  0.6834
 
              Baa    -0.0007    -0.391    -0.139    -0.130 -0.4877 -0.5446  0.6823
    56 H(1)   Bbb    -0.0006    -0.324    -0.115    -0.108  0.5350  0.4312  0.7265
              Bcc     0.0013     0.714     0.255     0.238 -0.6899  0.7193  0.0811
 
              Baa    -0.0005    -0.258    -0.092    -0.086  0.6781  0.7258 -0.1161
    57 H(1)   Bbb    -0.0005    -0.251    -0.090    -0.084  0.3305 -0.1600  0.9302
              Bcc     0.0010     0.509     0.182     0.170 -0.6565  0.6691  0.3483
 
              Baa    -0.0003    -0.044    -0.016    -0.015 -0.5346 -0.4646  0.7060
    58 C(13)  Bbb    -0.0003    -0.037    -0.013    -0.012  0.6436  0.3175  0.6963
              Bcc     0.0006     0.081     0.029     0.027 -0.5477  0.8267  0.1293
 
              Baa    -0.0011    -0.145    -0.052    -0.048 -0.6656 -0.0037  0.7463
    59 C(13)  Bbb    -0.0007    -0.091    -0.032    -0.030 -0.5886  0.6174 -0.5219
              Bcc     0.0018     0.235     0.084     0.079  0.4589  0.7866  0.4131
 
              Baa    -0.0014    -0.189    -0.067    -0.063  0.7874  0.4612 -0.4090
    60 C(13)  Bbb    -0.0011    -0.153    -0.055    -0.051 -0.5944  0.7438 -0.3057
              Bcc     0.0025     0.342     0.122     0.114  0.1632  0.4838  0.8598
 
              Baa    -0.0003    -0.163    -0.058    -0.054  0.7360  0.4033 -0.5437
    61 H(1)   Bbb    -0.0003    -0.157    -0.056    -0.052  0.4733  0.2677  0.8393
              Bcc     0.0006     0.320     0.114     0.107 -0.4840  0.8750 -0.0061
 
              Baa    -0.0002    -0.126    -0.045    -0.042  0.6606  0.6055 -0.4439
    62 H(1)   Bbb    -0.0002    -0.121    -0.043    -0.040  0.4050  0.2105  0.8898
              Bcc     0.0005     0.248     0.088     0.083 -0.6322  0.7675  0.1061
 
              Baa    -0.0003    -0.143    -0.051    -0.048  0.6195  0.4961 -0.6083
    63 H(1)   Bbb    -0.0002    -0.132    -0.047    -0.044  0.6277  0.1522  0.7634
              Bcc     0.0005     0.275     0.098     0.092 -0.4714  0.8548  0.2171
 
              Baa    -0.0009    -0.125    -0.045    -0.042  0.7752 -0.3446 -0.5295
    64 C(13)  Bbb    -0.0005    -0.067    -0.024    -0.022 -0.1359  0.7276 -0.6724
              Bcc     0.0014     0.192     0.068     0.064  0.6169  0.5932  0.5172
 
              Baa    -0.0008    -0.410    -0.146    -0.137 -0.5670  0.0176  0.8235
    65 H(1)   Bbb    -0.0006    -0.312    -0.111    -0.104  0.6647 -0.5807  0.4701
              Bcc     0.0014     0.723     0.258     0.241  0.4865  0.8139  0.3176
 
              Baa    -0.0010    -0.139    -0.049    -0.046  0.8664 -0.3674 -0.3381
    66 C(13)  Bbb    -0.0007    -0.092    -0.033    -0.031  0.1076  0.7986 -0.5922
              Bcc     0.0017     0.231     0.082     0.077  0.4876  0.4767  0.7315
 
              Baa    -0.0013    -0.716    -0.256    -0.239  0.7636  0.5921 -0.2578
    67 H(1)   Bbb    -0.0011    -0.574    -0.205    -0.192 -0.6455  0.7113 -0.2782
              Bcc     0.0024     1.291     0.461     0.431  0.0186  0.3788  0.9253
 
              Baa    -0.0006    -0.305    -0.109    -0.102  0.7501 -0.1615 -0.6413
    68 H(1)   Bbb    -0.0005    -0.250    -0.089    -0.083 -0.3071  0.7737 -0.5541
              Bcc     0.0010     0.555     0.198     0.185  0.5857  0.6126  0.5308
 
              Baa    -0.0007    -0.361    -0.129    -0.120  0.8415  0.1106 -0.5288
    69 H(1)   Bbb    -0.0007    -0.352    -0.126    -0.118 -0.3072  0.9031 -0.3000
              Bcc     0.0013     0.714     0.255     0.238  0.4443  0.4150  0.7940
 

 ---------------------------------------------------------------------------------

 Unable to Open any file for archive entry.
 1\1\GINC-CLUSTER\SP\UM062X\def2TZVP\C26H33N4O4S2(2)\KJIANG\21-Nov-2025
 \0\\# scrf=(solvent=n,n-dimethylformamide) def2tzvp m062x geom=allchec
 k\\Title Card Required\\0,2\C,0,-4.7279472154,-2.5481604377,0.00683611
 63\C,0,-4.0298623429,-1.3823339133,-0.3354206349\C,0,-3.1082841398,-1.
 3989996762,-1.4026956054\C,0,-2.8514835775,-2.5494737023,-2.1565655662
 \C,0,-3.5531096329,-3.6890366526,-1.7995136224\C,0,-4.4778242154,-3.68
 98106699,-0.7333417029\H,0,-5.4362853633,-2.5370968461,0.8282238356\H,
 0,-2.139948738,-2.5521318613,-2.9764944141\H,0,-3.3879401866,-4.607226
 8312,-2.3541555714\H,0,-5.0007803863,-4.6096197608,-0.4932262476\N,0,-
 4.0627662961,-0.1303366222,0.2459279124\N,0,-2.5935565127,-0.122837253
 7,-1.4682263599\C,0,-1.6287506577,0.3395153466,-2.459335254\H,0,-1.883
 9968599,-0.1125730121,-3.4203947035\H,0,-1.7010861866,1.4226256721,-2.
 5514788912\H,0,-0.6095010694,0.0644623587,-2.1735028364\C,0,-3.2112350
 336,0.563810583,-0.4516976564\S,0,-2.8168597844,2.2727611838,-0.071561
 3514\O,0,-3.6603293017,2.6948197764,1.033263429\O,0,-2.8271175368,3.00
 47231751,-1.3407508443\C,0,-1.113867939,2.1454109482,0.4781771248\C,0,
 -0.4404676081,3.5208156097,0.4379434012\H,0,-0.5960879602,1.4425042565
 ,-0.1812656913\H,0,-1.1481656751,1.7351779495,1.4898973611\C,0,0.99538
 69333,3.3906265266,0.8340783567\H,0,-0.5276230769,3.9490769109,-0.5655
 641373\H,0,-0.9631587069,4.1920161876,1.1326454745\C,0,2.0325764233,3.
 7145862652,-0.0051996061\H,0,1.2087812777,2.9328160054,1.7986389817\H,
 0,3.0473236745,3.7686974348,0.3843653772\H,0,1.8397022377,4.3080070027
 ,-0.8973563146\S,0,2.4625403095,1.8022339205,-1.2703621767\C,0,3.87455
 86074,1.0767743696,-0.3895957934\O,0,1.3316797972,0.8638714742,-1.0960
 777662\O,0,2.9030410812,2.13456406,-2.6348770161\C,0,3.9914755593,-0.4
 250261761,-0.690093144\H,0,3.6852475867,1.2570137859,0.6742848895\H,0,
 4.7393406849,1.6558653303,-0.7199487567\H,0,5.0207464826,-0.6436361872
 ,-0.9877570511\C,0,3.6388144339,-1.2902309167,0.5354400603\H,0,3.35910
 58399,-0.7006889991,-1.542051879\C,0,2.30929957,-0.9334318381,1.147328
 1949\C,0,3.8027059308,-2.7921751117,0.243813928\H,0,4.3519121988,-1.02
 42610711,1.3259428312\N,0,2.220111335,-0.1340889912,2.1853574473\N,0,1
 .0933990145,-1.4277579403,0.7389301285\C,0,0.7800933128,-2.1638163378,
 -0.4697095724\H,0,1.370964346,-1.7756440317,-1.3021280413\H,0,0.955538
 0473,-3.2362664597,-0.3490229898\H,0,-0.2764526754,-2.0046337097,-0.70
 16067218\H,0,3.2766037416,-3.368232229,1.0162097337\H,0,3.3279883431,-
 3.0451059243,-0.7133047931\C,0,5.2640466469,-3.2428333852,0.2050534639
 \C,0,0.1491256332,-0.8990661598,1.5958321221\C,0,0.872379714,-0.090768
 9042,2.4936040277\H,0,5.8100978232,-2.6854089924,-0.5656102599\H,0,5.7
 390478575,-2.9972602265,1.1629562989\C,0,5.3936291847,-4.7394062235,-0
 .0670278124\C,0,-1.233900029,-1.0639315991,1.6809082999\C,0,0.20141493
 32,0.5754885511,3.5262412974\H,0,4.9490177444,-5.0016100037,-1.0327562
 504\H,0,6.4409368292,-5.0525520678,-0.0840517762\H,0,4.8807346627,-5.3
 218753641,0.7052613698\C,0,-1.8837645423,-0.3879520043,2.7055113305\H,
 0,-1.7854863114,-1.699468185,0.9929546267\C,0,-1.1746911882,0.41629787
 01,3.6198931748\H,0,0.755712115,1.185686139,4.232786648\H,0,-2.9632321
 651,-0.4669104053,2.7842379611\H,0,-1.7222229982,0.9247779901,4.406779
 6071\\Version=ES64L-G16RevC.02\State=2-A\HF=-2326.8109962\S2=0.776439\
 S2-1=0.\S2A=0.750194\RMSD=3.064e-09\Dipole=3.6292765,-2.3924491,-0.779
 8753\Quadrupole=-5.0724968,11.4819412,-6.4094444,17.1033885,5.4765653,
 13.7075697\PG=C01 [X(C26H33N4O4S2)]\\@
 The archive entry for this job was punched.


 NO HUMAN INVESTIGATION CAN BECOME REAL SCIENCE
 WITHOUT GOING THROUGH MATHEMATICAL PEOPLE.
 -- LEONARDO DA VINCI, IN "PENSIERI" CA. 1492
 Job cpu time:       0 days 16 hours 36 minutes 43.6 seconds.
 Elapsed time:       0 days  0 hours 11 minutes 48.9 seconds.
 File lengths (MBytes):  RWF=   1926 Int=      0 D2E=      0 Chk=    160 Scr=      1
 Normal termination of Gaussian 16 at Fri Nov 21 18:55:57 2025.
