 Entering Gaussian System, Link 0=g16
 Initial command:
 /opt/software/gaussian/g16/l1.exe "/tmp/Gau-3009234.inp" -scrdir="/tmp/"
 Entering Link 1 = /opt/software/gaussian/g16/l1.exe PID=   3009236.
  
 Copyright (c) 1988-2019, Gaussian, Inc.  All Rights Reserved.
  
 This is part of the Gaussian(R) 16 program.  It is based on
 the Gaussian(R) 09 system (copyright 2009, Gaussian, Inc.),
 the Gaussian(R) 03 system (copyright 2003, Gaussian, Inc.),
 the Gaussian(R) 98 system (copyright 1998, Gaussian, Inc.),
 the Gaussian(R) 94 system (copyright 1995, Gaussian, Inc.),
 the Gaussian 92(TM) system (copyright 1992, Gaussian, Inc.),
 the Gaussian 90(TM) system (copyright 1990, Gaussian, Inc.),
 the Gaussian 88(TM) system (copyright 1988, Gaussian, Inc.),
 the Gaussian 86(TM) system (copyright 1986, Carnegie Mellon
 University), and the Gaussian 82(TM) system (copyright 1983,
 Carnegie Mellon University). Gaussian is a federally registered
 trademark of Gaussian, Inc.
  
 This software contains proprietary and confidential information,
 including trade secrets, belonging to Gaussian, Inc.
  
 This software is provided under written license and may be
 used, copied, transmitted, or stored only in accord with that
 written license.
  
 The following legend is applicable only to US Government
 contracts under FAR:
  
                    RESTRICTED RIGHTS LEGEND
  
 Use, reproduction and disclosure by the US Government is
 subject to restrictions as set forth in subparagraphs (a)
 and (c) of the Commercial Computer Software - Restricted
 Rights clause in FAR 52.227-19.
  
 Gaussian, Inc.
 340 Quinnipiac St., Bldg. 40, Wallingford CT 06492
  
  
 ---------------------------------------------------------------
 Warning -- This program may not be used in any manner that
 competes with the business of Gaussian, Inc. or will provide
 assistance to any competitor of Gaussian, Inc.  The licensee
 of this program is prohibited from giving any competitor of
 Gaussian, Inc. access to this program.  By using this program,
 the user acknowledges that Gaussian, Inc. is engaged in the
 business of creating and licensing software in the field of
 computational chemistry and represents and warrants to the
 licensee that it is not a competitor of Gaussian, Inc. and that
 it will not use this program in any manner prohibited above.
 ---------------------------------------------------------------
  

 Cite this work as:
 Gaussian 16, Revision C.01,
 M. J. Frisch, G. W. Trucks, H. B. Schlegel, G. E. Scuseria, 
 M. A. Robb, J. R. Cheeseman, G. Scalmani, V. Barone, 
 G. A. Petersson, H. Nakatsuji, X. Li, M. Caricato, A. V. Marenich, 
 J. Bloino, B. G. Janesko, R. Gomperts, B. Mennucci, H. P. Hratchian, 
 J. V. Ortiz, A. F. Izmaylov, J. L. Sonnenberg, D. Williams-Young, 
 F. Ding, F. Lipparini, F. Egidi, J. Goings, B. Peng, A. Petrone, 
 T. Henderson, D. Ranasinghe, V. G. Zakrzewski, J. Gao, N. Rega, 
 G. Zheng, W. Liang, M. Hada, M. Ehara, K. Toyota, R. Fukuda, 
 J. Hasegawa, M. Ishida, T. Nakajima, Y. Honda, O. Kitao, H. Nakai, 
 T. Vreven, K. Throssell, J. A. Montgomery, Jr., J. E. Peralta, 
 F. Ogliaro, M. J. Bearpark, J. J. Heyd, E. N. Brothers, K. N. Kudin, 
 V. N. Staroverov, T. A. Keith, R. Kobayashi, J. Normand, 
 K. Raghavachari, A. P. Rendell, J. C. Burant, S. S. Iyengar, 
 J. Tomasi, M. Cossi, J. M. Millam, M. Klene, C. Adamo, R. Cammi, 
 J. W. Ochterski, R. L. Martin, K. Morokuma, O. Farkas, 
 J. B. Foresman, and D. J. Fox, Gaussian, Inc., Wallingford CT, 2019.
 
 ******************************************
 Gaussian 16:  ES64L-G16RevC.01  3-Jul-2019
                25-Dec-2025 
 ******************************************
 %nprocshared=16
 Will use up to   16 processors via shared memory.
 %mem=50GB
 %chk=CH3Cl-opt.chk
 ------------------------------------
 # opt freq 6-311+g(d,p) em=gd3 m062x
 ------------------------------------
 1/18=20,19=15,26=3,38=1/1,3;
 2/9=110,12=2,17=6,18=5,40=1/2;
 3/5=4,6=6,7=111,11=2,25=1,30=1,71=1,74=-55,124=31/1,2,3;
 4//1;
 5/5=2,38=5/2;
 6/7=2,8=2,9=2,10=2,28=1/1;
 7//1,2,3,16;
 1/18=20,19=15,26=3/3(2);
 2/9=110/2;
 99//99;
 2/9=110/2;
 3/5=4,6=6,7=111,11=2,25=1,30=1,71=1,74=-55,124=31/1,2,3;
 4/5=5,16=3,69=1/1;
 5/5=2,38=5/2;
 7//1,2,3,16;
 1/18=20,19=15,26=3/3(-5);
 2/9=110/2;
 6/7=2,8=2,9=2,10=2,19=2,28=1/1;
 99/9=1/99;
 -------------------
 Title Card Required
 -------------------
 Symbolic Z-matrix:
 Charge =  0 Multiplicity = 1
 C                     0.54262   0.00308   0.00128 
 H                     0.19837   0.60417   0.83535 
 H                     0.20077  -1.01839   0.10445 
 H                     0.20591   0.42584  -0.93535 
 Cl                    2.37175  -0.00103   0.00031 
 

 GradGradGradGradGradGradGradGradGradGradGradGradGradGradGradGradGradGrad
 Berny optimization.
 Initialization pass.
                           ----------------------------
                           !    Initial Parameters    !
                           ! (Angstroms and Degrees)  !
 --------------------------                            --------------------------
 ! Name  Definition              Value          Derivative Info.                !
 --------------------------------------------------------------------------------
 ! R1    R(1,2)                  1.0842         estimate D2E/DX2                !
 ! R2    R(1,3)                  1.0821         estimate D2E/DX2                !
 ! R3    R(1,4)                  1.0814         estimate D2E/DX2                !
 ! R4    R(1,5)                  1.8291         estimate D2E/DX2                !
 ! A1    A(2,1,3)              110.4685         estimate D2E/DX2                !
 ! A2    A(2,1,4)              110.5308         estimate D2E/DX2                !
 ! A3    A(2,1,5)              108.6127         estimate D2E/DX2                !
 ! A4    A(3,1,4)              110.6868         estimate D2E/DX2                !
 ! A5    A(3,1,5)              108.2911         estimate D2E/DX2                !
 ! A6    A(4,1,5)              108.1676         estimate D2E/DX2                !
 ! D1    D(2,1,4,3)           -122.7216         estimate D2E/DX2                !
 ! D2    D(2,1,5,3)            119.9967         estimate D2E/DX2                !
 ! D3    D(2,1,5,4)           -120.0            estimate D2E/DX2                !
 ! D4    D(3,1,5,4)            120.0032         estimate D2E/DX2                !
 --------------------------------------------------------------------------------
 Trust Radius=3.00D-01 FncErr=1.00D-07 GrdErr=1.00D-06 EigMax=2.50D+02 EigMin=1.00D-04
 Number of steps in this run=     24 maximum allowed number of steps=    100.
 GradGradGradGradGradGradGradGradGradGradGradGradGradGradGradGradGradGrad

                          Input orientation:                          
 ---------------------------------------------------------------------
 Center     Atomic      Atomic             Coordinates (Angstroms)
 Number     Number       Type             X           Y           Z
 ---------------------------------------------------------------------
      1          6           0        0.542620    0.003082    0.001277
      2          1           0        0.198367    0.604171    0.835346
      3          1           0        0.200767   -1.018395    0.104450
      4          1           0        0.205908    0.425837   -0.935345
      5         17           0        2.371746   -0.001032    0.000312
 ---------------------------------------------------------------------
                    Distance matrix (angstroms):
                    1          2          3          4          5
     1  C    0.000000
     2  H    1.084200   0.000000
     3  H    1.082092   1.779588   0.000000
     4  H    1.081368   1.779665   1.779608   0.000000
     5  Cl   1.829131   2.405645   2.399796   2.397608   0.000000
 Stoichiometry    CH3Cl
 Framework group  C1[X(CH3Cl)]
 Deg. of freedom     9
 Full point group                 C1      NOp   1
 Largest Abelian subgroup         C1      NOp   1
 Largest concise Abelian subgroup C1      NOp   1
                         Standard orientation:                         
 ---------------------------------------------------------------------
 Center     Atomic      Atomic             Coordinates (Angstroms)
 Number     Number       Type             X           Y           Z
 ---------------------------------------------------------------------
      1          6           0        1.156631    0.000406    0.000226
      2          1           0        1.503070   -0.737299   -0.714799
      3          1           0        1.496135   -0.249890    0.996727
      4          1           0        1.493509    0.988692   -0.281128
      5         17           0       -0.672500   -0.000232   -0.000127
 ---------------------------------------------------------------------
 Rotational constants (GHZ):         158.3373112          12.7225926          12.7225492
 Standard basis: 6-311+G(d,p) (5D, 7F)
 There are    72 symmetry adapted cartesian basis functions of A   symmetry.
 There are    70 symmetry adapted basis functions of A   symmetry.
    70 basis functions,   113 primitive gaussians,    72 cartesian basis functions
    13 alpha electrons       13 beta electrons
       nuclear repulsion energy        50.4403050126 Hartrees.
 NAtoms=    5 NActive=    5 NUniq=    5 SFac= 1.00D+00 NAtFMM=   60 NAOKFM=F Big=F
 Integral buffers will be    131072 words long.
 Raffenetti 2 integral format.
 Two-electron integral symmetry is turned on.
 Nuclear repulsion after empirical dispersion term =       50.4403041990 Hartrees.
 One-electron integrals computed using PRISM.
 NBasis=    70 RedAO= T EigKep=  1.55D-03  NBF=    70
 NBsUse=    70 1.00D-06 EigRej= -1.00D+00 NBFU=    70
 ExpMin= 4.38D-02 ExpMax= 1.06D+05 ExpMxC= 3.62D+03 IAcc=3 IRadAn=         5 AccDes= 0.00D+00
 Harris functional with IExCor= 1009 and IRadAn=       5 diagonalized for initial guess.
 HarFok:  IExCor= 1009 AccDes= 0.00D+00 IRadAn=         5 IDoV= 1 UseB2=F ITyADJ=14
 ICtDFT=  3500011 ScaDFX=  1.000000  1.000000  1.000000  1.000000
 FoFCou: FMM=F IPFlag=           0 FMFlag=      100000 FMFlg1=           0
         NFxFlg=           0 DoJE=T BraDBF=F KetDBF=T FulRan=T
         wScrn=  0.000000 ICntrl=       500 IOpCl=  0 I1Cent=   200000004 NGrid=           0
         NMat0=    1 NMatS0=      1 NMatT0=    0 NMatD0=    1 NMtDS0=    0 NMtDT0=    0
 Petite list used in FoFCou.
 Keep R1 ints in memory in canonical form, NReq=17462014.
 Requested convergence on RMS density matrix=1.00D-08 within 128 cycles.
 Requested convergence on MAX density matrix=1.00D-06.
 Requested convergence on             energy=1.00D-06.
 No special actions if energy rises.
 SCF Done:  E(RM062X) =  -500.090974497     A.U. after   10 cycles
            NFock= 10  Conv=0.45D-08     -V/T= 2.0024

 **********************************************************************

            Population analysis using the SCF Density.

 **********************************************************************

 Orbital symmetries:
       Occupied  (A) (A) (A) (A) (A) (A) (A) (A) (A) (A) (A) (A)
                 (A)
       Virtual   (A) (A) (A) (A) (A) (A) (A) (A) (A) (A) (A) (A)
                 (A) (A) (A) (A) (A) (A) (A) (A) (A) (A) (A) (A)
                 (A) (A) (A) (A) (A) (A) (A) (A) (A) (A) (A) (A)
                 (A) (A) (A) (A) (A) (A) (A) (A) (A) (A) (A) (A)
                 (A) (A) (A) (A) (A) (A) (A) (A) (A)
 The electronic state is 1-A.
 Alpha  occ. eigenvalues -- -102.66376 -10.60043  -9.80523  -7.53045  -7.52356
 Alpha  occ. eigenvalues --   -7.52356  -0.94455  -0.77530  -0.52334  -0.52250
 Alpha  occ. eigenvalues --   -0.46923  -0.36396  -0.36395
 Alpha virt. eigenvalues --    0.00959   0.02967   0.05385   0.05393   0.08546
 Alpha virt. eigenvalues --    0.10338   0.10559   0.10562   0.17043   0.17089
 Alpha virt. eigenvalues --    0.18978   0.22520   0.41383   0.41392   0.43468
 Alpha virt. eigenvalues --    0.50317   0.50325   0.51516   0.62322   0.62421
 Alpha virt. eigenvalues --    0.67049   0.86682   0.87594   0.87690   0.93668
 Alpha virt. eigenvalues --    0.95450   0.95453   1.17813   1.17916   1.18457
 Alpha virt. eigenvalues --    1.47127   1.55579   1.55628   1.70277   1.72851
 Alpha virt. eigenvalues --    1.72861   1.97625   2.14348   2.14380   2.35744
 Alpha virt. eigenvalues --    2.35814   2.38700   2.45092   2.49721   2.49794
 Alpha virt. eigenvalues --    2.55004   2.55018   2.82923   3.22030   3.75480
 Alpha virt. eigenvalues --    3.76022   9.88752  23.94357  25.94432  25.94450
 Alpha virt. eigenvalues --   26.37957 215.97425
          Condensed to atoms (all electrons):
               1          2          3          4          5
     1  C    5.343207   0.380776   0.381264   0.381449   0.147328
     2  H    0.380776   0.512811  -0.027416  -0.027337  -0.041261
     3  H    0.381264  -0.027416   0.512555  -0.027141  -0.041935
     4  H    0.381449  -0.027337  -0.027141   0.512461  -0.042193
     5  Cl   0.147328  -0.041261  -0.041935  -0.042193  16.951897
 Mulliken charges:
               1
     1  C   -0.634025
     2  H    0.202426
     3  H    0.202674
     4  H    0.202761
     5  Cl   0.026164
 Sum of Mulliken charges =  -0.00000
 Mulliken charges with hydrogens summed into heavy atoms:
               1
     1  C   -0.026164
     5  Cl   0.026164
 Electronic spatial extent (au):  <R**2>=            134.8983
 Charge=             -0.0000 electrons
 Dipole moment (field-independent basis, Debye):
    X=              2.2111    Y=              0.0022    Z=              0.0012  Tot=              2.2111
 Quadrupole moment (field-independent basis, Debye-Ang):
   XX=            -18.1251   YY=            -20.1523   ZZ=            -20.1538
   XY=             -0.0072   XZ=             -0.0039   YZ=             -0.0027
 Traceless Quadrupole moment (field-independent basis, Debye-Ang):
   XX=              1.3520   YY=             -0.6753   ZZ=             -0.6767
   XY=             -0.0072   XZ=             -0.0039   YZ=             -0.0027
 Octapole moment (field-independent basis, Debye-Ang**2):
  XXX=             -1.3124  YYY=              0.6152  ZZZ=              0.6704  XYY=              1.1958
  XXY=             -0.0168  XXZ=             -0.0091  XZZ=              1.1961  YZZ=             -0.6022
  YYZ=             -0.6632  XYZ=              0.0008
 Hexadecapole moment (field-independent basis, Debye-Ang**3):
 XXXX=           -121.0774 YYYY=            -29.4224 ZZZZ=            -29.4292 XXXY=             -0.0476
 XXXZ=             -0.0256 YYYX=              0.8891 YYYZ=             -0.0076 ZZZX=              0.9780
 ZZZY=             -0.0070 XXYY=            -25.1078 XXZZ=            -25.1029 YYZZ=             -9.8098
 XXYZ=              0.0105 YYXZ=             -0.9792 ZZXY=             -0.8918
 N-N= 5.044030419900D+01 E-N=-1.287383543687D+03  KE= 4.988939497621D+02
 Calling FoFJK, ICntrl=      2127 FMM=F ISym2X=0 I1Cent= 0 IOpClX= 0 NMat=1 NMatS=1 NMatT=0.
 ***** Axes restored to original set *****
 -------------------------------------------------------------------
 Center     Atomic                   Forces (Hartrees/Bohr)
 Number     Number              X              Y              Z
 -------------------------------------------------------------------
      1        6           0.013308857    0.000451103    0.001226349
      2        1           0.001760939    0.001014772    0.001333363
      3        1           0.000847447   -0.002845164    0.000131863
      4        1           0.000530981    0.001233655   -0.003001287
      5       17          -0.016448224    0.000145633    0.000309711
 -------------------------------------------------------------------
 Cartesian Forces:  Max     0.016448224 RMS     0.005627580

 GradGradGradGradGradGradGradGradGradGradGradGradGradGradGradGradGradGrad
 Berny optimization.
 FormGI is forming the generalized inverse of G from B-inverse, IUseBI=4.
 Internal  Forces:  Max     0.016448671 RMS     0.004605935
 Search for a local minimum.
 Step number   1 out of a maximum of   24
 All quantities printed in internal units (Hartrees-Bohrs-Radians)
 Mixed Optimization -- RFO/linear search
 Second derivative matrix not updated -- first step.
 The second derivative matrix:
                          R1        R2        R3        R4        A1
           R1           0.35492
           R2           0.00000   0.35743
           R3           0.00000   0.00000   0.35830
           R4           0.00000   0.00000   0.00000   0.23950
           A1           0.00000   0.00000   0.00000   0.00000   0.16000
           A2           0.00000   0.00000   0.00000   0.00000   0.00000
           A3           0.00000   0.00000   0.00000   0.00000   0.00000
           A4           0.00000   0.00000   0.00000   0.00000   0.00000
           A5           0.00000   0.00000   0.00000   0.00000   0.00000
           A6           0.00000   0.00000   0.00000   0.00000   0.00000
           D1           0.00000   0.00000   0.00000   0.00000   0.00000
           D2           0.00000   0.00000   0.00000   0.00000   0.00000
           D3           0.00000   0.00000   0.00000   0.00000   0.00000
           D4           0.00000   0.00000   0.00000   0.00000   0.00000
                          A2        A3        A4        A5        A6
           A2           0.16000
           A3           0.00000   0.16000
           A4           0.00000   0.00000   0.16000
           A5           0.00000   0.00000   0.00000   0.16000
           A6           0.00000   0.00000   0.00000   0.00000   0.16000
           D1           0.00000   0.00000   0.00000   0.00000   0.00000
           D2           0.00000   0.00000   0.00000   0.00000   0.00000
           D3           0.00000   0.00000   0.00000   0.00000   0.00000
           D4           0.00000   0.00000   0.00000   0.00000   0.00000
                          D1        D2        D3        D4
           D1           0.00349
           D2           0.00000   0.00230
           D3           0.00000   0.00000   0.00230
           D4           0.00000   0.00000   0.00000   0.00230
 ITU=  0
     Eigenvalues ---    0.05234   0.05934   0.08346   0.16000   0.16000
     Eigenvalues ---    0.23950   0.35492   0.35743   0.35830
 RFO step:  Lambda=-1.30029181D-03 EMin= 5.23365896D-02
 Linear search not attempted -- first point.
 Iteration  1 RMS(Cart)=  0.02160926 RMS(Int)=  0.00012088
 Iteration  2 RMS(Cart)=  0.00006866 RMS(Int)=  0.00009638
 Iteration  3 RMS(Cart)=  0.00000000 RMS(Int)=  0.00009638
 Variable       Old X    -DE/DX   Delta X   Delta X   Delta X     New X
                                 (Linear)    (Quad)   (Total)
    R1        2.04884   0.00103   0.00000   0.00289   0.00289   2.05173
    R2        2.04486   0.00243   0.00000   0.00678   0.00678   2.05163
    R3        2.04349   0.00292   0.00000   0.00811   0.00811   2.05160
    R4        3.45656  -0.01645   0.00000  -0.06831  -0.06831   3.38825
    A1        1.92804   0.00069   0.00000   0.01174   0.01151   1.93955
    A2        1.92913   0.00117   0.00000   0.01154   0.01139   1.94052
    A3        1.89565  -0.00151   0.00000  -0.01598  -0.01597   1.87968
    A4        1.93185   0.00083   0.00000   0.00993   0.00981   1.94166
    A5        1.89004  -0.00065   0.00000  -0.01040  -0.01037   1.87966
    A6        1.88788  -0.00065   0.00000  -0.00830  -0.00829   1.87959
    D1       -2.14190  -0.00225   0.00000  -0.02971  -0.02991  -2.17180
    D2        2.09434  -0.00042   0.00000  -0.00112  -0.00113   2.09321
    D3       -2.09440  -0.00017   0.00000   0.00010   0.00008  -2.09432
    D4        2.09445   0.00025   0.00000   0.00122   0.00121   2.09566
         Item               Value     Threshold  Converged?
 Maximum Force            0.016449     0.000450     NO 
 RMS     Force            0.004606     0.000300     NO 
 Maximum Displacement     0.067039     0.001800     NO 
 RMS     Displacement     0.021611     0.001200     NO 
 Predicted change in Energy=-6.552891D-04
 GradGradGradGradGradGradGradGradGradGradGradGradGradGradGradGradGradGrad

                          Input orientation:                          
 ---------------------------------------------------------------------
 Center     Atomic      Atomic             Coordinates (Angstroms)
 Number     Number       Type             X           Y           Z
 ---------------------------------------------------------------------
      1          6           0        0.543290    0.002956    0.000778
      2          1           0        0.213328    0.607530    0.840076
      3          1           0        0.211435   -1.025503    0.104904
      4          1           0        0.215084    0.428718   -0.942442
      5         17           0        2.336270   -0.000038    0.002724
 ---------------------------------------------------------------------
                    Distance matrix (angstroms):
                    1          2          3          4          5
     1  C    0.000000
     2  H    1.085728   0.000000
     3  H    1.085678   1.790887   0.000000
     4  H    1.085660   1.791465   1.792124   0.000000
     5  Cl   1.792984   2.361606   2.361556   2.361483   0.000000
 Stoichiometry    CH3Cl
 Framework group  C1[X(CH3Cl)]
 Deg. of freedom     9
 Full point group                 C1      NOp   1
 Largest Abelian subgroup         C1      NOp   1
 Largest concise Abelian subgroup C1      NOp   1
                         Standard orientation:                         
 ---------------------------------------------------------------------
 Center     Atomic      Atomic             Coordinates (Angstroms)
 Number     Number       Type             X           Y           Z
 ---------------------------------------------------------------------
      1          6           0        1.134258    0.000106    0.000125
      2          1           0        1.464411   -0.249275   -1.003675
      3          1           0        1.464276   -0.745328    0.717142
      4          1           0        1.464111    0.994158    0.285985
      5         17           0       -0.658726   -0.000011   -0.000012
 ---------------------------------------------------------------------
 Rotational constants (GHZ):         156.2435721          13.2259014          13.2250087
 Standard basis: 6-311+G(d,p) (5D, 7F)
 There are    72 symmetry adapted cartesian basis functions of A   symmetry.
 There are    70 symmetry adapted basis functions of A   symmetry.
    70 basis functions,   113 primitive gaussians,    72 cartesian basis functions
    13 alpha electrons       13 beta electrons
       nuclear repulsion energy        51.1917236575 Hartrees.
 NAtoms=    5 NActive=    5 NUniq=    5 SFac= 1.00D+00 NAtFMM=   60 NAOKFM=F Big=F
 Integral buffers will be    131072 words long.
 Raffenetti 2 integral format.
 Two-electron integral symmetry is turned on.
 Nuclear repulsion after empirical dispersion term =       51.1917229323 Hartrees.
 One-electron integrals computed using PRISM.
 NBasis=    70 RedAO= T EigKep=  1.44D-03  NBF=    70
 NBsUse=    70 1.00D-06 EigRej= -1.00D+00 NBFU=    70
 Initial guess from the checkpoint file:  "CH3Cl-opt.chk"
 B after Tr=    -0.000000   -0.000000   -0.000000
         Rot=    0.961349   -0.275332   -0.000255    0.000253 Ang= -31.96 deg.
 ExpMin= 4.38D-02 ExpMax= 1.06D+05 ExpMxC= 3.62D+03 IAcc=3 IRadAn=         5 AccDes= 0.00D+00
 Harris functional with IExCor= 1009 and IRadAn=       5 diagonalized for initial guess.
 HarFok:  IExCor= 1009 AccDes= 0.00D+00 IRadAn=         5 IDoV= 1 UseB2=F ITyADJ=14
 ICtDFT=  3500011 ScaDFX=  1.000000  1.000000  1.000000  1.000000
 FoFCou: FMM=F IPFlag=           0 FMFlag=      100000 FMFlg1=           0
         NFxFlg=           0 DoJE=T BraDBF=F KetDBF=T FulRan=T
         wScrn=  0.000000 ICntrl=       500 IOpCl=  0 I1Cent=   200000004 NGrid=           0
         NMat0=    1 NMatS0=      1 NMatT0=    0 NMatD0=    1 NMtDS0=    0 NMtDT0=    0
 Petite list used in FoFCou.
 Keep R1 ints in memory in canonical form, NReq=17462014.
 Requested convergence on RMS density matrix=1.00D-08 within 128 cycles.
 Requested convergence on MAX density matrix=1.00D-06.
 Requested convergence on             energy=1.00D-06.
 No special actions if energy rises.
 SCF Done:  E(RM062X) =  -500.091604056     A.U. after   10 cycles
            NFock= 10  Conv=0.14D-08     -V/T= 2.0023
 Calling FoFJK, ICntrl=      2127 FMM=F ISym2X=0 I1Cent= 0 IOpClX= 0 NMat=1 NMatS=1 NMatT=0.
 ***** Axes restored to original set *****
 -------------------------------------------------------------------
 Center     Atomic                   Forces (Hartrees/Bohr)
 Number     Number              X              Y              Z
 -------------------------------------------------------------------
      1        6           0.004586477    0.000033136    0.000164851
      2        1          -0.001346095   -0.000232797   -0.000413302
      3        1          -0.001373475    0.000450290   -0.000163010
      4        1          -0.001408925   -0.000251127    0.000408101
      5       17          -0.000457982    0.000000498    0.000003359
 -------------------------------------------------------------------
 Cartesian Forces:  Max     0.004586477 RMS     0.001357479

 GradGradGradGradGradGradGradGradGradGradGradGradGradGradGradGradGradGrad
 Berny optimization.
 Using GEDIIS/GDIIS optimizer.
 FormGI is forming the generalized inverse of G from B-inverse, IUseBI=4.
 Internal  Forces:  Max     0.001783461 RMS     0.000718256
 Search for a local minimum.
 Step number   2 out of a maximum of   24
 All quantities printed in internal units (Hartrees-Bohrs-Radians)
 Mixed Optimization -- En-DIIS/RFO-DIIS
 Update second derivatives using D2CorX and points    1    2
 DE= -6.30D-04 DEPred=-6.55D-04 R= 9.61D-01
 TightC=F SS=  1.41D+00  RLast= 8.05D-02 DXNew= 5.0454D-01 2.4137D-01
 Trust test= 9.61D-01 RLast= 8.05D-02 DXMaxT set to 3.00D-01
 The second derivative matrix:
                          R1        R2        R3        R4        A1
           R1           0.35493
           R2          -0.00001   0.35727
           R3          -0.00002  -0.00019   0.35806
           R4           0.00055   0.00213   0.00256   0.21833
           A1          -0.00067  -0.00163  -0.00196   0.01147   0.15813
           A2           0.00015   0.00025   0.00030  -0.00082  -0.00107
           A3           0.00034   0.00092   0.00110  -0.00713   0.00204
           A4           0.00013   0.00023   0.00027  -0.00078  -0.00092
           A5           0.00028   0.00073   0.00087  -0.00548   0.00138
           A6          -0.00021  -0.00041  -0.00049   0.00208   0.00069
           D1          -0.00306  -0.00701  -0.00841   0.04567  -0.00285
           D2          -0.00060  -0.00137  -0.00164   0.00891  -0.00057
           D3          -0.00024  -0.00056  -0.00067   0.00363  -0.00023
           D4           0.00035   0.00081   0.00097  -0.00528   0.00034
                          A2        A3        A4        A5        A6
           A2           0.16050
           A3           0.00036   0.15837
           A4           0.00044   0.00030   0.16039
           A5           0.00035  -0.00118   0.00029   0.15916
           A6          -0.00055  -0.00006  -0.00048  -0.00013   0.16055
           D1          -0.00589   0.00617  -0.00509   0.00379   0.00466
           D2          -0.00114   0.00121  -0.00099   0.00074   0.00090
           D3          -0.00047   0.00049  -0.00040   0.00030   0.00037
           D4           0.00068  -0.00071   0.00059  -0.00044  -0.00054
                          D1        D2        D3        D4
           D1           0.01533
           D2           0.00225   0.00273
           D3           0.00091   0.00017   0.00237
           D4          -0.00134  -0.00025  -0.00010   0.00245
 ITU=  1  0
 Use linear search instead of GDIIS.
     Eigenvalues ---    0.05406   0.06042   0.09141   0.15902   0.16020
     Eigenvalues ---    0.22570   0.35495   0.35737   0.35822
 RFO step:  Lambda=-7.44375432D-05 EMin= 5.40568724D-02
 Quartic linear search produced a step of -0.04935.
 Iteration  1 RMS(Cart)=  0.00472968 RMS(Int)=  0.00006342
 Iteration  2 RMS(Cart)=  0.00003752 RMS(Int)=  0.00005014
 Iteration  3 RMS(Cart)=  0.00000000 RMS(Int)=  0.00005014
 Variable       Old X    -DE/DX   Delta X   Delta X   Delta X     New X
                                 (Linear)    (Quad)   (Total)
    R1        2.05173  -0.00004  -0.00014   0.00022   0.00007   2.05180
    R2        2.05163  -0.00002  -0.00033   0.00069   0.00036   2.05199
    R3        2.05160  -0.00003  -0.00040   0.00083   0.00043   2.05203
    R4        3.38825  -0.00046   0.00337  -0.00949  -0.00612   3.38213
    A1        1.93955  -0.00033  -0.00057  -0.00626  -0.00694   1.93261
    A2        1.94052  -0.00088  -0.00056  -0.00732  -0.00796   1.93256
    A3        1.87968   0.00066   0.00079   0.00734   0.00814   1.88782
    A4        1.94166  -0.00095  -0.00048  -0.00834  -0.00890   1.93276
    A5        1.87966   0.00069   0.00051   0.00793   0.00846   1.88812
    A6        1.87959   0.00097   0.00041   0.00827   0.00868   1.88827
    D1       -2.17180   0.00178   0.00148   0.01969   0.02106  -2.15075
    D2        2.09321   0.00035   0.00006   0.00100   0.00103   2.09425
    D3       -2.09432   0.00014  -0.00000   0.00006   0.00005  -2.09427
    D4        2.09566  -0.00021  -0.00006  -0.00093  -0.00099   2.09467
         Item               Value     Threshold  Converged?
 Maximum Force            0.001783     0.000450     NO 
 RMS     Force            0.000718     0.000300     NO 
 Maximum Displacement     0.011144     0.001800     NO 
 RMS     Displacement     0.004748     0.001200     NO 
 Predicted change in Energy=-3.906613D-05
 GradGradGradGradGradGradGradGradGradGradGradGradGradGradGradGradGradGrad

                          Input orientation:                          
 ---------------------------------------------------------------------
 Center     Atomic      Atomic             Coordinates (Angstroms)
 Number     Number       Type             X           Y           Z
 ---------------------------------------------------------------------
      1          6           0        0.549188    0.002964    0.000991
      2          1           0        0.210791    0.606281    0.837882
      3          1           0        0.208558   -1.022922    0.104148
      4          1           0        0.211941    0.427338   -0.939925
      5         17           0        2.338930    0.000001    0.002943
 ---------------------------------------------------------------------
                    Distance matrix (angstroms):
                    1          2          3          4          5
     1  C    0.000000
     2  H    1.085767   0.000000
     3  H    1.085868   1.786805   0.000000
     4  H    1.085888   1.786790   1.786996   0.000000
     5  Cl   1.789746   2.365095   2.365396   2.365523   0.000000
 Stoichiometry    CH3Cl
 Framework group  C1[X(CH3Cl)]
 Deg. of freedom     9
 Full point group                 C1      NOp   1
 Largest Abelian subgroup         C1      NOp   1
 Largest concise Abelian subgroup C1      NOp   1
                         Standard orientation:                         
 ---------------------------------------------------------------------
 Center     Atomic      Atomic             Coordinates (Angstroms)
 Number     Number       Type             X           Y           Z
 ---------------------------------------------------------------------
      1          6           0        1.131131   -0.000004    0.000008
      2          1           0        1.469611    0.034285   -1.031081
      3          1           0        1.469946   -0.910168    0.485718
      4          1           0        1.470110    0.875840    0.545117
      5         17           0       -0.658615    0.000004    0.000012
 ---------------------------------------------------------------------
 Rotational constants (GHZ):         157.0540869          13.2435257          13.2433601
 Standard basis: 6-311+G(d,p) (5D, 7F)
 There are    72 symmetry adapted cartesian basis functions of A   symmetry.
 There are    70 symmetry adapted basis functions of A   symmetry.
    70 basis functions,   113 primitive gaussians,    72 cartesian basis functions
    13 alpha electrons       13 beta electrons
       nuclear repulsion energy        51.2289367745 Hartrees.
 NAtoms=    5 NActive=    5 NUniq=    5 SFac= 1.00D+00 NAtFMM=   60 NAOKFM=F Big=F
 Integral buffers will be    131072 words long.
 Raffenetti 2 integral format.
 Two-electron integral symmetry is turned on.
 Nuclear repulsion after empirical dispersion term =       51.2289360426 Hartrees.
 One-electron integrals computed using PRISM.
 NBasis=    70 RedAO= T EigKep=  1.44D-03  NBF=    70
 NBsUse=    70 1.00D-06 EigRej= -1.00D+00 NBFU=    70
 Initial guess from the checkpoint file:  "CH3Cl-opt.chk"
 B after Tr=     0.000000   -0.000000    0.000000
         Rot=    0.990465   -0.137763   -0.000027    0.000016 Ang= -15.84 deg.
 Keep R1 ints in memory in canonical form, NReq=17462014.
 Requested convergence on RMS density matrix=1.00D-08 within 128 cycles.
 Requested convergence on MAX density matrix=1.00D-06.
 Requested convergence on             energy=1.00D-06.
 No special actions if energy rises.
 SCF Done:  E(RM062X) =  -500.091655103     A.U. after    8 cycles
            NFock=  8  Conv=0.26D-08     -V/T= 2.0023
 Calling FoFJK, ICntrl=      2127 FMM=F ISym2X=0 I1Cent= 0 IOpClX= 0 NMat=1 NMatS=1 NMatT=0.
 ***** Axes restored to original set *****
 -------------------------------------------------------------------
 Center     Atomic                   Forces (Hartrees/Bohr)
 Number     Number              X              Y              Z
 -------------------------------------------------------------------
      1        6           0.001667207   -0.000015724   -0.000017043
      2        1          -0.000482875   -0.000022265   -0.000033100
      3        1          -0.000436555    0.000087706   -0.000023484
      4        1          -0.000421045   -0.000051510    0.000086629
      5       17          -0.000326731    0.000001793   -0.000013003
 -------------------------------------------------------------------
 Cartesian Forces:  Max     0.001667207 RMS     0.000483602

 GradGradGradGradGradGradGradGradGradGradGradGradGradGradGradGradGradGrad
 Berny optimization.
 Using GEDIIS/GDIIS optimizer.
 FormGI is forming the generalized inverse of G from B-inverse, IUseBI=4.
 Internal  Forces:  Max     0.000549813 RMS     0.000236296
 Search for a local minimum.
 Step number   3 out of a maximum of   24
 All quantities printed in internal units (Hartrees-Bohrs-Radians)
 Mixed Optimization -- En-DIIS/RFO-DIIS
 Swapping is turned off.
 Update second derivatives using D2CorX and points    1    2    3
 DE= -5.10D-05 DEPred=-3.91D-05 R= 1.31D+00
 TightC=F SS=  1.41D+00  RLast= 2.98D-02 DXNew= 5.0454D-01 8.9338D-02
 Trust test= 1.31D+00 RLast= 2.98D-02 DXMaxT set to 3.00D-01
 The second derivative matrix:
                          R1        R2        R3        R4        A1
           R1           0.35517
           R2          -0.00007   0.35718
           R3          -0.00015  -0.00029   0.35797
           R4           0.00233   0.00310   0.00332   0.21190
           A1          -0.00022  -0.00052  -0.00072  -0.00304   0.14149
           A2           0.00139   0.00138   0.00138  -0.01253  -0.01910
           A3          -0.00048  -0.00033  -0.00022   0.00802   0.02130
           A4           0.00157   0.00147   0.00145  -0.01347  -0.02087
           A5          -0.00076  -0.00052  -0.00040   0.00875   0.02080
           A6          -0.00173  -0.00160  -0.00158   0.01355   0.01989
           D1          -0.00541  -0.00664  -0.00741   0.03113  -0.00477
           D2          -0.00106  -0.00128  -0.00142   0.00582  -0.00114
           D3          -0.00043  -0.00052  -0.00058   0.00236  -0.00048
           D4           0.00063   0.00076   0.00084  -0.00346   0.00066
                          A2        A3        A4        A5        A6
           A2           0.14322
           A3           0.02033   0.13643
           A4          -0.01852   0.02233   0.13959
           A5           0.01987  -0.02305   0.02178   0.13752
           A6           0.01728  -0.02110   0.01903  -0.02053   0.14233
           D1          -0.01514   0.01128  -0.01583   0.01091   0.01638
           D2          -0.00321   0.00246  -0.00338   0.00240   0.00348
           D3          -0.00132   0.00102  -0.00139   0.00099   0.00143
           D4           0.00189  -0.00144   0.00199  -0.00140  -0.00205
                          D1        D2        D3        D4
           D1           0.03792
           D2           0.00677   0.00363
           D3           0.00275   0.00054   0.00252
           D4          -0.00402  -0.00079  -0.00032   0.00277
 ITU=  1  1  0
     Eigenvalues ---    0.04915   0.05952   0.06736   0.15775   0.16004
     Eigenvalues ---    0.22378   0.35531   0.35735   0.35819
 En-DIIS/RFO-DIIS/Sim-DIIS IScMMF=       -3 using points:     3    2
 RFO step:  Lambda=-1.26368743D-05.
 DidBck=F Rises=F RFO-DIIS coefs:    1.48991   -0.48991
 Iteration  1 RMS(Cart)=  0.00215616 RMS(Int)=  0.00004009
 Iteration  2 RMS(Cart)=  0.00000866 RMS(Int)=  0.00003908
 Iteration  3 RMS(Cart)=  0.00000000 RMS(Int)=  0.00003908
 Variable       Old X    -DE/DX   Delta X   Delta X   Delta X     New X
                                 (Linear)    (Quad)   (Total)
    R1        2.05180   0.00011   0.00004   0.00053   0.00057   2.05237
    R2        2.05199   0.00005   0.00018   0.00025   0.00043   2.05242
    R3        2.05203   0.00004   0.00021   0.00019   0.00040   2.05243
    R4        3.38213  -0.00033  -0.00300  -0.00119  -0.00418   3.37795
    A1        1.93261  -0.00013  -0.00340  -0.00016  -0.00364   1.92897
    A2        1.93256  -0.00028  -0.00390   0.00011  -0.00385   1.92871
    A3        1.88782   0.00024   0.00399   0.00028   0.00428   1.89210
    A4        1.93276  -0.00027  -0.00436   0.00032  -0.00409   1.92867
    A5        1.88812   0.00021   0.00414  -0.00014   0.00401   1.89214
    A6        1.88827   0.00026   0.00425  -0.00042   0.00383   1.89210
    D1       -2.15075   0.00055   0.01032  -0.00010   0.01013  -2.14062
    D2        2.09425   0.00010   0.00051  -0.00011   0.00038   2.09463
    D3       -2.09427   0.00004   0.00002  -0.00005  -0.00003  -2.09430
    D4        2.09467  -0.00006  -0.00048   0.00006  -0.00041   2.09426
         Item               Value     Threshold  Converged?
 Maximum Force            0.000550     0.000450     NO 
 RMS     Force            0.000236     0.000300     YES
 Maximum Displacement     0.005649     0.001800     NO 
 RMS     Displacement     0.002160     0.001200     NO 
 Predicted change in Energy=-6.319384D-06
 GradGradGradGradGradGradGradGradGradGradGradGradGradGradGradGradGradGrad

                          Input orientation:                          
 ---------------------------------------------------------------------
 Center     Atomic      Atomic             Coordinates (Angstroms)
 Number     Number       Type             X           Y           Z
 ---------------------------------------------------------------------
      1          6           0        0.552177    0.002974    0.001108
      2          1           0        0.209399    0.605721    0.837016
      3          1           0        0.207327   -1.021774    0.103917
      4          1           0        0.210799    0.426771   -0.938823
      5         17           0        2.339706   -0.000029    0.002822
 ---------------------------------------------------------------------
                    Distance matrix (angstroms):
                    1          2          3          4          5
     1  C    0.000000
     2  H    1.086068   0.000000
     3  H    1.086094   1.784987   0.000000
     4  H    1.086099   1.784832   1.784825   0.000000
     5  Cl   1.787533   2.366648   2.366690   2.366664   0.000000
 Stoichiometry    CH3Cl
 Framework group  C1[X(CH3Cl)]
 Deg. of freedom     9
 Full point group                 C1      NOp   1
 Largest Abelian subgroup         C1      NOp   1
 Largest concise Abelian subgroup C1      NOp   1
                         Standard orientation:                         
 ---------------------------------------------------------------------
 Center     Atomic      Atomic             Coordinates (Angstroms)
 Number     Number       Type             X           Y           Z
 ---------------------------------------------------------------------
      1          6           0        1.129194    0.000006   -0.000027
      2          1           0        1.472170    0.902367   -0.497678
      3          1           0        1.472218   -0.882281   -0.532477
      4          1           0        1.472201   -0.020098    1.030290
      5         17           0       -0.658338   -0.000002    0.000002
 ---------------------------------------------------------------------
 Rotational constants (GHZ):         157.4030706          13.2607567          13.2606245
 Standard basis: 6-311+G(d,p) (5D, 7F)
 There are    72 symmetry adapted cartesian basis functions of A   symmetry.
 There are    70 symmetry adapted basis functions of A   symmetry.
    70 basis functions,   113 primitive gaussians,    72 cartesian basis functions
    13 alpha electrons       13 beta electrons
       nuclear repulsion energy        51.2588719746 Hartrees.
 NAtoms=    5 NActive=    5 NUniq=    5 SFac= 1.00D+00 NAtFMM=   60 NAOKFM=F Big=F
 Integral buffers will be    131072 words long.
 Raffenetti 2 integral format.
 Two-electron integral symmetry is turned on.
 Nuclear repulsion after empirical dispersion term =       51.2588712405 Hartrees.
 One-electron integrals computed using PRISM.
 NBasis=    70 RedAO= T EigKep=  1.44D-03  NBF=    70
 NBsUse=    70 1.00D-06 EigRej= -1.00D+00 NBFU=    70
 Initial guess from the checkpoint file:  "CH3Cl-opt.chk"
 B after Tr=     0.000000    0.000000    0.000000
         Rot=    0.869443   -0.494034    0.000018    0.000003 Ang= -59.21 deg.
 Keep R1 ints in memory in canonical form, NReq=17462014.
 Requested convergence on RMS density matrix=1.00D-08 within 128 cycles.
 Requested convergence on MAX density matrix=1.00D-06.
 Requested convergence on             energy=1.00D-06.
 No special actions if energy rises.
 SCF Done:  E(RM062X) =  -500.091661373     A.U. after    7 cycles
            NFock=  7  Conv=0.94D-08     -V/T= 2.0023
 Calling FoFJK, ICntrl=      2127 FMM=F ISym2X=0 I1Cent= 0 IOpClX= 0 NMat=1 NMatS=1 NMatT=0.
 ***** Axes restored to original set *****
 -------------------------------------------------------------------
 Center     Atomic                   Forces (Hartrees/Bohr)
 Number     Number              X              Y              Z
 -------------------------------------------------------------------
      1        6          -0.000042515    0.000004774   -0.000039247
      2        1          -0.000000519   -0.000002048    0.000025263
      3        1           0.000008456   -0.000000787    0.000014725
      4        1           0.000004131   -0.000002743    0.000007444
      5       17           0.000030446    0.000000804   -0.000008184
 -------------------------------------------------------------------
 Cartesian Forces:  Max     0.000042515 RMS     0.000018933

 GradGradGradGradGradGradGradGradGradGradGradGradGradGradGradGradGradGrad
 Berny optimization.
 Using GEDIIS/GDIIS optimizer.
 FormGI is forming the generalized inverse of G from B-inverse, IUseBI=4.
 Internal  Forces:  Max     0.000030437 RMS     0.000011159
 Search for a local minimum.
 Step number   4 out of a maximum of   24
 All quantities printed in internal units (Hartrees-Bohrs-Radians)
 Mixed Optimization -- En-DIIS/RFO-DIIS
 Swapping is turned off.
 Update second derivatives using D2CorX and points    1    2    3    4
 DE= -6.27D-06 DEPred=-6.32D-06 R= 9.92D-01
 TightC=F SS=  1.41D+00  RLast= 1.47D-02 DXNew= 5.0454D-01 4.3995D-02
 Trust test= 9.92D-01 RLast= 1.47D-02 DXMaxT set to 3.00D-01
 The second derivative matrix:
                          R1        R2        R3        R4        A1
           R1           0.35493
           R2          -0.00020   0.35716
           R3          -0.00023  -0.00027   0.35803
           R4           0.00308   0.00301   0.00294   0.21398
           A1           0.00017  -0.00013  -0.00033  -0.00555   0.14133
           A2           0.00180   0.00153   0.00142  -0.01298  -0.01920
           A3          -0.00091  -0.00063  -0.00046   0.00963   0.02134
           A4           0.00198   0.00162   0.00149  -0.01391  -0.02100
           A5          -0.00113  -0.00076  -0.00058   0.00994   0.02089
           A6          -0.00218  -0.00176  -0.00162   0.01408   0.02013
           D1          -0.00592  -0.00610  -0.00648   0.02650  -0.00420
           D2          -0.00115  -0.00115  -0.00122   0.00473  -0.00105
           D3          -0.00046  -0.00046  -0.00049   0.00186  -0.00046
           D4           0.00069   0.00069   0.00073  -0.00287   0.00060
                          A2        A3        A4        A5        A6
           A2           0.14376
           A3           0.01993   0.13678
           A4          -0.01794   0.02192   0.14021
           A5           0.01942  -0.02271   0.02132   0.13786
           A6           0.01692  -0.02089   0.01864  -0.02025   0.14251
           D1          -0.01539   0.01123  -0.01629   0.01128   0.01645
           D2          -0.00334   0.00250  -0.00355   0.00253   0.00357
           D3          -0.00141   0.00106  -0.00149   0.00107   0.00150
           D4           0.00193  -0.00144   0.00205  -0.00146  -0.00207
                          D1        D2        D3        D4
           D1           0.03668
           D2           0.00669   0.00365
           D3           0.00278   0.00056   0.00253
           D4          -0.00390  -0.00079  -0.00033   0.00276
 ITU=  1  1  1  0
     Eigenvalues ---    0.04847   0.05911   0.06900   0.15800   0.16004
     Eigenvalues ---    0.22478   0.35513   0.35733   0.35822
 En-DIIS/RFO-DIIS/Sim-DIIS IScMMF=       -3 using points:     4    3    2
 RFO step:  Lambda=-1.27616513D-08.
 DidBck=F Rises=F RFO-DIIS coefs:    0.93172    0.09448   -0.02619
 Iteration  1 RMS(Cart)=  0.00005790 RMS(Int)=  0.00000196
 Iteration  2 RMS(Cart)=  0.00000000 RMS(Int)=  0.00000196
 Variable       Old X    -DE/DX   Delta X   Delta X   Delta X     New X
                                 (Linear)    (Quad)   (Total)
    R1        2.05237   0.00002  -0.00004   0.00008   0.00004   2.05241
    R2        2.05242  -0.00000  -0.00002   0.00001  -0.00001   2.05241
    R3        2.05243  -0.00001  -0.00002  -0.00001  -0.00003   2.05240
    R4        3.37795   0.00003   0.00013   0.00005   0.00018   3.37812
    A1        1.92897  -0.00001   0.00007  -0.00012  -0.00006   1.92892
    A2        1.92871   0.00001   0.00005   0.00007   0.00012   1.92884
    A3        1.89210   0.00000  -0.00008   0.00003  -0.00005   1.89205
    A4        1.92867   0.00001   0.00005   0.00008   0.00012   1.92879
    A5        1.89214  -0.00001  -0.00005  -0.00005  -0.00010   1.89204
    A6        1.89210  -0.00001  -0.00003  -0.00001  -0.00004   1.89205
    D1       -2.14062  -0.00000  -0.00014   0.00005  -0.00009  -2.14071
    D2        2.09463  -0.00001   0.00000  -0.00015  -0.00015   2.09448
    D3       -2.09430  -0.00001   0.00000  -0.00009  -0.00009  -2.09439
    D4        2.09426   0.00000   0.00000   0.00006   0.00006   2.09432
         Item               Value     Threshold  Converged?
 Maximum Force            0.000030     0.000450     YES
 RMS     Force            0.000011     0.000300     YES
 Maximum Displacement     0.000110     0.001800     YES
 RMS     Displacement     0.000058     0.001200     YES
 Predicted change in Energy=-6.467658D-09
 Optimization completed.
    -- Stationary point found.
                           ----------------------------
                           !   Optimized Parameters   !
                           ! (Angstroms and Degrees)  !
 --------------------------                            --------------------------
 ! Name  Definition              Value          Derivative Info.                !
 --------------------------------------------------------------------------------
 ! R1    R(1,2)                  1.0861         -DE/DX =    0.0                 !
 ! R2    R(1,3)                  1.0861         -DE/DX =    0.0                 !
 ! R3    R(1,4)                  1.0861         -DE/DX =    0.0                 !
 ! R4    R(1,5)                  1.7875         -DE/DX =    0.0                 !
 ! A1    A(2,1,3)              110.522          -DE/DX =    0.0                 !
 ! A2    A(2,1,4)              110.5072         -DE/DX =    0.0                 !
 ! A3    A(2,1,5)              108.4096         -DE/DX =    0.0                 !
 ! A4    A(3,1,4)              110.5046         -DE/DX =    0.0                 !
 ! A5    A(3,1,5)              108.4114         -DE/DX =    0.0                 !
 ! A6    A(4,1,5)              108.4091         -DE/DX =    0.0                 !
 ! D1    D(2,1,4,3)           -122.6483         -DE/DX =    0.0                 !
 ! D2    D(2,1,5,3)            120.0134         -DE/DX =    0.0                 !
 ! D3    D(2,1,5,4)           -119.9944         -DE/DX =    0.0                 !
 ! D4    D(3,1,5,4)            119.9922         -DE/DX =    0.0                 !
 --------------------------------------------------------------------------------
 GradGradGradGradGradGradGradGradGradGradGradGradGradGradGradGradGradGrad

                          Input orientation:                          
 ---------------------------------------------------------------------
 Center     Atomic      Atomic             Coordinates (Angstroms)
 Number     Number       Type             X           Y           Z
 ---------------------------------------------------------------------
      1          6           0        0.552177    0.002974    0.001108
      2          1           0        0.209399    0.605721    0.837016
      3          1           0        0.207327   -1.021774    0.103917
      4          1           0        0.210799    0.426771   -0.938823
      5         17           0        2.339706   -0.000029    0.002822
 ---------------------------------------------------------------------
                    Distance matrix (angstroms):
                    1          2          3          4          5
     1  C    0.000000
     2  H    1.086068   0.000000
     3  H    1.086094   1.784987   0.000000
     4  H    1.086099   1.784832   1.784825   0.000000
     5  Cl   1.787533   2.366648   2.366690   2.366664   0.000000
 Stoichiometry    CH3Cl
 Framework group  C1[X(CH3Cl)]
 Deg. of freedom     9
 Full point group                 C1      NOp   1
 Largest Abelian subgroup         C1      NOp   1
 Largest concise Abelian subgroup C1      NOp   1
                         Standard orientation:                         
 ---------------------------------------------------------------------
 Center     Atomic      Atomic             Coordinates (Angstroms)
 Number     Number       Type             X           Y           Z
 ---------------------------------------------------------------------
      1          6           0        1.129194    0.000006   -0.000027
      2          1           0        1.472170    0.902367   -0.497678
      3          1           0        1.472218   -0.882281   -0.532477
      4          1           0        1.472201   -0.020098    1.030290
      5         17           0       -0.658338   -0.000002    0.000002
 ---------------------------------------------------------------------
 Rotational constants (GHZ):         157.4030706          13.2607567          13.2606245

 **********************************************************************

            Population analysis using the SCF Density.

 **********************************************************************

 Orbital symmetries:
       Occupied  (A) (A) (A) (A) (A) (A) (A) (A) (A) (A) (A) (A)
                 (A)
       Virtual   (A) (A) (A) (A) (A) (A) (A) (A) (A) (A) (A) (A)
                 (A) (A) (A) (A) (A) (A) (A) (A) (A) (A) (A) (A)
                 (A) (A) (A) (A) (A) (A) (A) (A) (A) (A) (A) (A)
                 (A) (A) (A) (A) (A) (A) (A) (A) (A) (A) (A) (A)
                 (A) (A) (A) (A) (A) (A) (A) (A) (A)
 The electronic state is 1-A.
 Alpha  occ. eigenvalues -- -102.66315 -10.59754  -9.80535  -7.53055  -7.52367
 Alpha  occ. eigenvalues --   -7.52367  -0.95346  -0.77040  -0.52385  -0.52381
 Alpha  occ. eigenvalues --   -0.47469  -0.36274  -0.36274
 Alpha virt. eigenvalues --    0.01178   0.03204   0.05372   0.05373   0.08588
 Alpha virt. eigenvalues --    0.10549   0.10555   0.11353   0.17008   0.17012
 Alpha virt. eigenvalues --    0.19085   0.22483   0.41608   0.41608   0.43150
 Alpha virt. eigenvalues --    0.50154   0.50156   0.52116   0.62215   0.62219
 Alpha virt. eigenvalues --    0.66788   0.86792   0.86839   0.86839   0.94213
 Alpha virt. eigenvalues --    0.95280   0.95282   1.19135   1.19139   1.19988
 Alpha virt. eigenvalues --    1.47026   1.55499   1.55504   1.72042   1.73471
 Alpha virt. eigenvalues --    1.73474   1.97827   2.14603   2.14609   2.35945
 Alpha virt. eigenvalues --    2.35948   2.40375   2.44379   2.49765   2.49771
 Alpha virt. eigenvalues --    2.54894   2.54897   2.83654   3.25422   3.75534
 Alpha virt. eigenvalues --    3.75555   9.89928  23.93428  25.94986  25.94987
 Alpha virt. eigenvalues --   26.38606 215.98707
          Condensed to atoms (all electrons):
               1          2          3          4          5
     1  C    5.369125   0.382259   0.382257   0.382270   0.128370
     2  H    0.382259   0.517632  -0.027943  -0.027959  -0.045053
     3  H    0.382257  -0.027943   0.517636  -0.027961  -0.045050
     4  H    0.382270  -0.027959  -0.027961   0.517659  -0.045071
     5  Cl   0.128370  -0.045053  -0.045050  -0.045071  16.965708
 Mulliken charges:
               1
     1  C   -0.644281
     2  H    0.201062
     3  H    0.201061
     4  H    0.201061
     5  Cl   0.041097
 Sum of Mulliken charges =  -0.00000
 Mulliken charges with hydrogens summed into heavy atoms:
               1
     1  C   -0.041097
     5  Cl   0.041097
 Electronic spatial extent (au):  <R**2>=            131.7634
 Charge=             -0.0000 electrons
 Dipole moment (field-independent basis, Debye):
    X=              2.1022    Y=              0.0000    Z=              0.0000  Tot=              2.1022
 Quadrupole moment (field-independent basis, Debye-Ang):
   XX=            -18.3438   YY=            -20.1061   ZZ=            -20.1069
   XY=             -0.0001   XZ=              0.0002   YZ=             -0.0000
 Traceless Quadrupole moment (field-independent basis, Debye-Ang):
   XX=              1.1751   YY=             -0.5872   ZZ=             -0.5879
   XY=             -0.0001   XZ=              0.0002   YZ=             -0.0000
 Octapole moment (field-independent basis, Debye-Ang**2):
  XXX=             -1.7603  YYY=              0.0527  ZZZ=              0.8991  XYY=              1.1294
  XXY=             -0.0001  XXZ=              0.0002  XZZ=              1.1284  YZZ=             -0.0526
  YYZ=             -0.8993  XYZ=             -0.0000
 Hexadecapole moment (field-independent basis, Debye-Ang**3):
 XXXX=           -117.8207 YYYY=            -29.3889 ZZZZ=            -29.3891 XXXY=             -0.0003
 XXXZ=              0.0005 YYYX=              0.0754 YYYZ=             -0.0000 ZZZX=              1.2883
 ZZZY=             -0.0001 XXYY=            -24.5418 XXZZ=            -24.5433 YYZZ=             -9.7965
 XXYZ=              0.0000 YYXZ=             -1.2879 ZZXY=             -0.0754
 N-N= 5.125887124052D+01 E-N=-1.289051346088D+03  KE= 4.989399858962D+02
 Unable to Open any file for archive entry.
 1\1\GINC-MASTER\FOpt\RM062X\6-311+G(d,p)\C1H3Cl1\HAHAHA\25-Dec-2025\0\
 \# opt freq 6-311+g(d,p) em=gd3 m062x\\Title Card Required\\0,1\C,0.55
 21767613,0.0029739622,0.0011078295\H,0.2093987691,0.6057210617,0.83701
 57926\H,0.2073272931,-1.0217742475,0.1039167338\H,0.2107991587,0.42677
 12535,-0.9388225449\Cl,2.3397060178,-0.0000290299,0.002822189\\Version
 =ES64L-G16RevC.01\State=1-A\HF=-500.0916614\RMSD=9.357e-09\RMSF=1.893e
 -05\Dipole=-0.8270764,0.0013957,-0.0008071\Quadrupole=0.8736837,-0.436
 6836,-0.4370001,-0.0022224,0.001417,0.0002125\PG=C01 [X(C1H3Cl1)]\\@
 The archive entry for this job was punched.


 CHARLIE BROWN.."I CAN'T GET THAT STUPID KITE IN THE
 AIR... I CAN'T... I C A N N O T..."
 LUCY.."OH COME NOW CHARLIE BROWN...THAT'S NO WAY TO TALK...
 THE TROUBLE WITH YOU IS YOU DON'T BELIEVE IN YOURSELF... YOU
 DON'T BELIEVE IN YOUR OWN ABILITIES...  YOU'VE GOT TO SAY TO
 YOURSELF...'I BELIEVE I CAN FLY THIS KITE.'... GO AHEAD SAY
 IT...."
 CHARLIE BROWN.."I BELIEVE THAT I CAN FLY THIS STUPID
 KITE.....I BELIEVE THAT I CAN FLY THIS KITE........
 I  A C T U A L L Y  B E L I E V E  T H A T  I  C A N ******"
 LUCY.."I'LL BET YOU TEN-TO-ONE YOU'RE WRONG......."    SCHULZ
 Job cpu time:       0 days  0 hours  0 minutes 30.4 seconds.
 Elapsed time:       0 days  0 hours  0 minutes  2.2 seconds.
 File lengths (MBytes):  RWF=      6 Int=      0 D2E=      0 Chk=      2 Scr=      1
 Normal termination of Gaussian 16 at Thu Dec 25 18:55:14 2025.
 Link1:  Proceeding to internal job step number  2.
 ----------------------------------------------------------------------
 #N Geom=AllCheck Guess=TCheck SCRF=Check GenChk RM062X/6-311+G(d,p) Fr
 eq
 ----------------------------------------------------------------------
 1/10=4,29=7,30=1,38=1,40=1/1,3;
 2/12=2,40=1/2;
 3/5=4,6=6,7=111,11=2,14=-4,25=1,30=1,70=2,71=2,74=-55,116=1,124=31,140=1/1,2,3;
 4/5=101/1;
 5/5=2,38=6,98=1/2;
 8/6=4,10=90,11=11/1;
 11/6=1,8=1,9=11,15=111,16=1/1,2,10;
 10/6=1/2;
 6/7=2,8=2,9=2,10=2,28=1/1;
 7/8=1,10=1,25=1/1,2,3,16;
 1/10=4,30=1/3;
 99//99;
 Structure from the checkpoint file:  "CH3Cl-opt.chk"
 -------------------
 Title Card Required
 -------------------
 Charge =  0 Multiplicity = 1
 Redundant internal coordinates found in file.  (old form).
 C,0,0.5521767613,0.0029739622,0.0011078295
 H,0,0.2093987691,0.6057210617,0.8370157926
 H,0,0.2073272931,-1.0217742475,0.1039167338
 H,0,0.2107991587,0.4267712535,-0.9388225449
 Cl,0,2.3397060178,-0.0000290299,0.002822189
 Recover connectivity data from disk.

 GradGradGradGradGradGradGradGradGradGradGradGradGradGradGradGradGradGrad
 Berny optimization.
 Initialization pass.
                           ----------------------------
                           !    Initial Parameters    !
                           ! (Angstroms and Degrees)  !
 --------------------------                            --------------------------
 ! Name  Definition              Value          Derivative Info.                !
 --------------------------------------------------------------------------------
 ! R1    R(1,2)                  1.0861         calculate D2E/DX2 analytically  !
 ! R2    R(1,3)                  1.0861         calculate D2E/DX2 analytically  !
 ! R3    R(1,4)                  1.0861         calculate D2E/DX2 analytically  !
 ! R4    R(1,5)                  1.7875         calculate D2E/DX2 analytically  !
 ! A1    A(2,1,3)              110.522          calculate D2E/DX2 analytically  !
 ! A2    A(2,1,4)              110.5072         calculate D2E/DX2 analytically  !
 ! A3    A(2,1,5)              108.4096         calculate D2E/DX2 analytically  !
 ! A4    A(3,1,4)              110.5046         calculate D2E/DX2 analytically  !
 ! A5    A(3,1,5)              108.4114         calculate D2E/DX2 analytically  !
 ! A6    A(4,1,5)              108.4091         calculate D2E/DX2 analytically  !
 ! D1    D(2,1,4,3)           -122.6483         calculate D2E/DX2 analytically  !
 ! D2    D(2,1,5,3)            120.0134         calculate D2E/DX2 analytically  !
 ! D3    D(2,1,5,4)           -119.9944         calculate D2E/DX2 analytically  !
 ! D4    D(3,1,5,4)            119.9922         calculate D2E/DX2 analytically  !
 --------------------------------------------------------------------------------
 Trust Radius=3.00D-01 FncErr=1.00D-07 GrdErr=1.00D-07 EigMax=2.50D+02 EigMin=1.00D-04
 Number of steps in this run=      2 maximum allowed number of steps=      2.
 GradGradGradGradGradGradGradGradGradGradGradGradGradGradGradGradGradGrad

                          Input orientation:                          
 ---------------------------------------------------------------------
 Center     Atomic      Atomic             Coordinates (Angstroms)
 Number     Number       Type             X           Y           Z
 ---------------------------------------------------------------------
      1          6           0        0.552177    0.002974    0.001108
      2          1           0        0.209399    0.605721    0.837016
      3          1           0        0.207327   -1.021774    0.103917
      4          1           0        0.210799    0.426771   -0.938823
      5         17           0        2.339706   -0.000029    0.002822
 ---------------------------------------------------------------------
                    Distance matrix (angstroms):
                    1          2          3          4          5
     1  C    0.000000
     2  H    1.086068   0.000000
     3  H    1.086094   1.784987   0.000000
     4  H    1.086099   1.784832   1.784825   0.000000
     5  Cl   1.787533   2.366648   2.366690   2.366664   0.000000
 Stoichiometry    CH3Cl
 Framework group  C1[X(CH3Cl)]
 Deg. of freedom     9
 Full point group                 C1      NOp   1
 Largest Abelian subgroup         C1      NOp   1
 Largest concise Abelian subgroup C1      NOp   1
                         Standard orientation:                         
 ---------------------------------------------------------------------
 Center     Atomic      Atomic             Coordinates (Angstroms)
 Number     Number       Type             X           Y           Z
 ---------------------------------------------------------------------
      1          6           0        1.129194    0.000006   -0.000027
      2          1           0        1.472170    0.902367   -0.497678
      3          1           0        1.472218   -0.882281   -0.532477
      4          1           0        1.472201   -0.020098    1.030290
      5         17           0       -0.658338   -0.000002    0.000002
 ---------------------------------------------------------------------
 Rotational constants (GHZ):         157.4030706          13.2607567          13.2606245
 Standard basis: 6-311+G(d,p) (5D, 7F)
 There are    72 symmetry adapted cartesian basis functions of A   symmetry.
 There are    70 symmetry adapted basis functions of A   symmetry.
    70 basis functions,   113 primitive gaussians,    72 cartesian basis functions
    13 alpha electrons       13 beta electrons
       nuclear repulsion energy        51.2588719746 Hartrees.
 NAtoms=    5 NActive=    5 NUniq=    5 SFac= 1.00D+00 NAtFMM=   60 NAOKFM=F Big=F
 Integral buffers will be    131072 words long.
 Raffenetti 2 integral format.
 Two-electron integral symmetry is turned on.
 Nuclear repulsion after empirical dispersion term =       51.2588712405 Hartrees.
 One-electron integrals computed using PRISM.
 NBasis=    70 RedAO= T EigKep=  1.44D-03  NBF=    70
 NBsUse=    70 1.00D-06 EigRej= -1.00D+00 NBFU=    70
 Initial guess from the checkpoint file:  "CH3Cl-opt.chk"
 B after Tr=    -0.000000    0.000000   -0.000000
         Rot=    1.000000   -0.000000   -0.000000    0.000000 Ang=   0.00 deg.
 Keep R1 ints in memory in canonical form, NReq=17462014.
 Requested convergence on RMS density matrix=1.00D-08 within 128 cycles.
 Requested convergence on MAX density matrix=1.00D-06.
 Requested convergence on             energy=1.00D-06.
 No special actions if energy rises.
 SCF Done:  E(RM062X) =  -500.091661373     A.U. after    1 cycles
            NFock=  1  Conv=0.15D-08     -V/T= 2.0023
 DoSCS=F DFT=T ScalE2(SS,OS)=  1.000000  1.000000
 Range of M.O.s used for correlation:     1    70
 NBasis=    70 NAE=    13 NBE=    13 NFC=     0 NFV=     0
 NROrb=     70 NOA=    13 NOB=    13 NVA=    57 NVB=    57

 **** Warning!!: The largest alpha MO coefficient is  0.13560571D+02

 Symmetrizing basis deriv contribution to polar:
 IMax=3 JMax=2 DiffMx= 0.00D+00
 G2DrvN: will do     6 centers at a time, making    1 passes.
 Calling FoFCou, ICntrl=  3107 FMM=F I1Cent=   0 AccDes= 0.00D+00.
 End of G2Drv F.D. properties file   721 does not exist.
 End of G2Drv F.D. properties file   722 does not exist.
 End of G2Drv F.D. properties file   788 does not exist.
          IDoAtm=11111
          Differentiating once with respect to electric field.
                with respect to dipole field.
          Differentiating once with respect to nuclear coordinates.
 Keep R1 ints in memory in canonical form, NReq=17410616.
          There are    18 degrees of freedom in the 1st order CPHF.  IDoFFX=6 NUNeed=     3.
     15 vectors produced by pass  0 Test12= 4.12D-15 5.56D-09 XBig12= 1.37D+01 1.95D+00.
 AX will form    15 AO Fock derivatives at one time.
     15 vectors produced by pass  1 Test12= 4.12D-15 5.56D-09 XBig12= 1.08D+00 2.87D-01.
     15 vectors produced by pass  2 Test12= 4.12D-15 5.56D-09 XBig12= 1.74D-02 3.99D-02.
     15 vectors produced by pass  3 Test12= 4.12D-15 5.56D-09 XBig12= 7.24D-05 2.26D-03.
     15 vectors produced by pass  4 Test12= 4.12D-15 5.56D-09 XBig12= 4.33D-07 1.50D-04.
     15 vectors produced by pass  5 Test12= 4.12D-15 5.56D-09 XBig12= 2.29D-09 1.37D-05.
      8 vectors produced by pass  6 Test12= 4.12D-15 5.56D-09 XBig12= 7.01D-12 8.13D-07.
      3 vectors produced by pass  7 Test12= 4.12D-15 5.56D-09 XBig12= 2.41D-14 5.62D-08.
 InvSVY:  IOpt=1 It=  1 EMax= 1.11D-15
 Solved reduced A of dimension   101 with    15 vectors.
 Isotropic polarizability for W=    0.000000       23.32 Bohr**3.
 End of Minotr F.D. properties file   721 does not exist.
 End of Minotr F.D. properties file   722 does not exist.
 End of Minotr F.D. properties file   788 does not exist.

 **********************************************************************

            Population analysis using the SCF Density.

 **********************************************************************

 Orbital symmetries:
       Occupied  (A) (A) (A) (A) (A) (A) (A) (A) (A) (A) (A) (A)
                 (A)
       Virtual   (A) (A) (A) (A) (A) (A) (A) (A) (A) (A) (A) (A)
                 (A) (A) (A) (A) (A) (A) (A) (A) (A) (A) (A) (A)
                 (A) (A) (A) (A) (A) (A) (A) (A) (A) (A) (A) (A)
                 (A) (A) (A) (A) (A) (A) (A) (A) (A) (A) (A) (A)
                 (A) (A) (A) (A) (A) (A) (A) (A) (A)
 The electronic state is 1-A.
 Alpha  occ. eigenvalues -- -102.66315 -10.59754  -9.80535  -7.53055  -7.52367
 Alpha  occ. eigenvalues --   -7.52367  -0.95346  -0.77040  -0.52385  -0.52381
 Alpha  occ. eigenvalues --   -0.47469  -0.36274  -0.36274
 Alpha virt. eigenvalues --    0.01178   0.03204   0.05372   0.05373   0.08588
 Alpha virt. eigenvalues --    0.10549   0.10555   0.11353   0.17008   0.17012
 Alpha virt. eigenvalues --    0.19085   0.22483   0.41608   0.41608   0.43150
 Alpha virt. eigenvalues --    0.50154   0.50156   0.52116   0.62215   0.62219
 Alpha virt. eigenvalues --    0.66788   0.86792   0.86839   0.86839   0.94213
 Alpha virt. eigenvalues --    0.95280   0.95282   1.19135   1.19139   1.19988
 Alpha virt. eigenvalues --    1.47026   1.55499   1.55504   1.72042   1.73471
 Alpha virt. eigenvalues --    1.73474   1.97827   2.14603   2.14609   2.35945
 Alpha virt. eigenvalues --    2.35948   2.40375   2.44379   2.49765   2.49771
 Alpha virt. eigenvalues --    2.54894   2.54897   2.83654   3.25422   3.75534
 Alpha virt. eigenvalues --    3.75555   9.89928  23.93428  25.94986  25.94987
 Alpha virt. eigenvalues --   26.38606 215.98707
          Condensed to atoms (all electrons):
               1          2          3          4          5
     1  C    5.369125   0.382259   0.382257   0.382270   0.128370
     2  H    0.382259   0.517632  -0.027943  -0.027958  -0.045053
     3  H    0.382257  -0.027943   0.517636  -0.027961  -0.045050
     4  H    0.382270  -0.027958  -0.027961   0.517659  -0.045071
     5  Cl   0.128370  -0.045053  -0.045050  -0.045071  16.965708
 Mulliken charges:
               1
     1  C   -0.644281
     2  H    0.201062
     3  H    0.201061
     4  H    0.201061
     5  Cl   0.041097
 Sum of Mulliken charges =  -0.00000
 Mulliken charges with hydrogens summed into heavy atoms:
               1
     1  C   -0.041097
     5  Cl   0.041097
 APT charges:
               1
     1  C    0.293408
     2  H    0.002506
     3  H    0.002521
     4  H    0.002628
     5  Cl  -0.301063
 Sum of APT charges =   0.00000
 APT charges with hydrogens summed into heavy atoms:
               1
     1  C    0.301063
     5  Cl  -0.301063
 Electronic spatial extent (au):  <R**2>=            131.7634
 Charge=              0.0000 electrons
 Dipole moment (field-independent basis, Debye):
    X=              2.1022    Y=              0.0000    Z=              0.0000  Tot=              2.1022
 Quadrupole moment (field-independent basis, Debye-Ang):
   XX=            -18.3438   YY=            -20.1061   ZZ=            -20.1069
   XY=             -0.0001   XZ=              0.0002   YZ=             -0.0000
 Traceless Quadrupole moment (field-independent basis, Debye-Ang):
   XX=              1.1751   YY=             -0.5872   ZZ=             -0.5879
   XY=             -0.0001   XZ=              0.0002   YZ=             -0.0000
 Octapole moment (field-independent basis, Debye-Ang**2):
  XXX=             -1.7603  YYY=              0.0527  ZZZ=              0.8991  XYY=              1.1294
  XXY=             -0.0001  XXZ=              0.0002  XZZ=              1.1284  YZZ=             -0.0526
  YYZ=             -0.8993  XYZ=             -0.0000
 Hexadecapole moment (field-independent basis, Debye-Ang**3):
 XXXX=           -117.8207 YYYY=            -29.3889 ZZZZ=            -29.3891 XXXY=             -0.0003
 XXXZ=              0.0005 YYYX=              0.0754 YYYZ=             -0.0000 ZZZX=              1.2883
 ZZZY=             -0.0001 XXYY=            -24.5418 XXZZ=            -24.5433 YYZZ=             -9.7965
 XXYZ=              0.0000 YYXZ=             -1.2879 ZZXY=             -0.0754
 N-N= 5.125887124052D+01 E-N=-1.289051347030D+03  KE= 4.989399863166D+02
  Exact polarizability:      30.469       0.002      19.737       0.009      -0.002      19.759
 Approx polarizability:      33.101      -0.000      21.362       0.000       0.000      21.361
 Calling FoFJK, ICntrl=    100127 FMM=F ISym2X=0 I1Cent= 0 IOpClX= 0 NMat=1 NMatS=1 NMatT=0.
 Full mass-weighted force constant matrix:
 Low frequencies ---  -28.6587  -26.7236    0.0057    0.0061    0.0070   39.7014
 Low frequencies ---  753.6852 1041.6177 1042.4742
 Diagonal vibrational polarizability:
        1.6748093       0.1845718       0.1841559
 Harmonic frequencies (cm**-1), IR intensities (KM/Mole), Raman scattering
 activities (A**4/AMU), depolarization ratios for plane and unpolarized
 incident light, reduced masses (AMU), force constants (mDyne/A),
 and normal coordinates:
                      1                      2                      3
                      A                      A                      A
 Frequencies --    753.6852              1041.6172              1042.4732
 Red. masses --      7.1026                 1.1739                 1.1737
 Frc consts  --      2.3771                 0.7504                 0.7515
 IR Inten    --     30.1071                 3.8563                 3.8522
  Atom  AN      X      Y      Z        X      Y      Z        X      Y      Z
     1   6     0.61   0.00  -0.00    -0.00   0.09  -0.07    -0.00  -0.07  -0.09
     2   1     0.43   0.05  -0.03     0.73  -0.08   0.11    -0.14   0.16   0.24
     3   1     0.43  -0.05  -0.03    -0.24  -0.18   0.21     0.71   0.06   0.14
     4   1     0.43  -0.00   0.05    -0.49  -0.22   0.08    -0.56   0.19   0.10
     5  17    -0.25   0.00   0.00    -0.00  -0.02   0.01     0.00   0.01   0.02
                      4                      5                      6
                      A                      A                      A
 Frequencies --   1402.1198              1488.3450              1488.5139
 Red. masses --      1.1332                 1.0518                 1.0520
 Frc consts  --      1.3126                 1.3728                 1.3733
 IR Inten    --     13.9650                 6.5669                 6.5697
  Atom  AN      X      Y      Z        X      Y      Z        X      Y      Z
     1   6    -0.11  -0.00   0.00    -0.00   0.05  -0.04     0.00  -0.04  -0.05
     2   1     0.54  -0.17   0.10    -0.33   0.16  -0.01     0.03   0.34   0.64
     3   1     0.54   0.17   0.10     0.14  -0.29   0.60    -0.30  -0.27   0.19
     4   1     0.54   0.01  -0.20     0.19  -0.59  -0.10     0.27   0.43  -0.11
     5  17    -0.01  -0.00  -0.00    -0.00   0.00  -0.00     0.00  -0.00  -0.00
                      7                      8                      9
                      A                      A                      A
 Frequencies --   3107.4800              3207.6463              3208.7981
 Red. masses --      1.0276                 1.1090                 1.1090
 Frc consts  --      5.8464                 6.7227                 6.7277
 IR Inten    --     20.5634                 3.4966                 3.4319
  Atom  AN      X      Y      Z        X      Y      Z        X      Y      Z
     1   6    -0.04  -0.00   0.00     0.00  -0.10   0.01    -0.00  -0.01  -0.10
     2   1     0.17   0.49  -0.27     0.22   0.61  -0.35    -0.10  -0.29   0.14
     3   1     0.17  -0.47  -0.29    -0.20   0.54   0.34    -0.14   0.39   0.22
     4   1     0.17  -0.01   0.55    -0.02  -0.02  -0.07     0.24  -0.02   0.78
     5  17     0.00  -0.00   0.00    -0.00   0.00  -0.00     0.00   0.00   0.00

 -------------------
 - Thermochemistry -
 -------------------
 Temperature   298.150 Kelvin.  Pressure   1.00000 Atm.
 Atom     1 has atomic number  6 and mass  12.00000
 Atom     2 has atomic number  1 and mass   1.00783
 Atom     3 has atomic number  1 and mass   1.00783
 Atom     4 has atomic number  1 and mass   1.00783
 Atom     5 has atomic number 17 and mass  34.96885
 Molecular mass:    49.99233 amu.
 Principal axes and moments of inertia in atomic units:
                           1         2         3
     Eigenvalues --    11.46573 136.09640 136.09775
           X            1.00000  -0.00000   0.00001
           Y            0.00000   1.00000   0.00000
           Z           -0.00001  -0.00000   1.00000
 This molecule is an asymmetric top.
 Rotational symmetry number  1.
 Rotational temperatures (Kelvin)      7.55416     0.63642     0.63641
 Rotational constants (GHZ):         157.40307    13.26076    13.26062
 Zero-point vibrational energy     100131.5 (Joules/Mol)
                                   23.93200 (Kcal/Mol)
 Vibrational temperatures:   1084.38  1498.65  1499.89  2017.34  2141.40
          (Kelvin)           2141.64  4470.97  4615.09  4616.74
 
 Zero-point correction=                           0.038138 (Hartree/Particle)
 Thermal correction to Energy=                    0.041144
 Thermal correction to Enthalpy=                  0.042088
 Thermal correction to Gibbs Free Energy=         0.014487
 Sum of electronic and zero-point Energies=           -500.053523
 Sum of electronic and thermal Energies=              -500.050518
 Sum of electronic and thermal Enthalpies=            -500.049573
 Sum of electronic and thermal Free Energies=         -500.077174
 
                     E (Thermal)             CV                S
                      KCal/Mol        Cal/Mol-Kelvin    Cal/Mol-Kelvin
 Total                   25.818              7.620             58.091
 Electronic               0.000              0.000              0.000
 Translational            0.889              2.981             37.651
 Rotational               0.889              2.981             19.991
 Vibrational             24.041              1.658              0.449
                       Q            Log10(Q)             Ln(Q)
 Total Bot       0.216960D-06         -6.663620        -15.343553
 Total V=0       0.756240D+11         10.878660         25.049040
 Vib (Bot)       0.299347D-17        -17.523824        -40.350097
 Vib (V=0)       0.104341D+01          0.018456          0.042495
 Electronic      0.100000D+01          0.000000          0.000000
 Translational   0.138934D+08          7.142809         16.446925
 Rotational      0.521669D+04          3.717395          8.559619
 ***** Axes restored to original set *****
 -------------------------------------------------------------------
 Center     Atomic                   Forces (Hartrees/Bohr)
 Number     Number              X              Y              Z
 -------------------------------------------------------------------
      1        6          -0.000042522    0.000004773   -0.000039251
      2        1          -0.000000518   -0.000002047    0.000025265
      3        1           0.000008459   -0.000000785    0.000014725
      4        1           0.000004136   -0.000002745    0.000007448
      5       17           0.000030445    0.000000804   -0.000008187
 -------------------------------------------------------------------
 Cartesian Forces:  Max     0.000042522 RMS     0.000018935
 FormGI is forming the generalized inverse of G from B-inverse, IUseBI=4.

 GradGradGradGradGradGradGradGradGradGradGradGradGradGradGradGradGradGrad
 Berny optimization.
 Internal  Forces:  Max     0.000030435 RMS     0.000011160
 Search for a local minimum.
 Step number   1 out of a maximum of    2
 All quantities printed in internal units (Hartrees-Bohrs-Radians)
 Second derivative matrix not updated -- analytic derivatives used.
 The second derivative matrix:
                          R1        R2        R3        R4        A1
           R1           0.35611
           R2           0.00220   0.35619
           R3           0.00221   0.00221   0.35654
           R4           0.00430   0.00430   0.00429   0.23226
           A1           0.00313   0.00313  -0.00331  -0.00693   0.02002
           A2           0.00451  -0.00315   0.00520  -0.01525  -0.00869
           A3          -0.00259  -0.00068  -0.00164   0.01155  -0.01431
           A4          -0.00314   0.00453   0.00522  -0.01525  -0.00868
           A5          -0.00069  -0.00261  -0.00165   0.01155  -0.01430
           A6          -0.00141  -0.00141  -0.00411   0.01590   0.02585
           D1          -0.00490  -0.00492  -0.00292   0.02964  -0.01351
           D2           0.00187   0.00186  -0.00588   0.00500   0.00756
           D3          -0.00311   0.00498  -0.00293   0.00250   0.00379
           D4          -0.00498   0.00312   0.00295  -0.00250  -0.00377
                          A2        A3        A4        A5        A6
           A2           0.03703
           A3          -0.02389   0.09152
           A4          -0.00164   0.02624   0.03705
           A5           0.02623  -0.04397  -0.02392   0.09156
           A6          -0.03016  -0.03510  -0.03017  -0.03511   0.10616
           D1          -0.01318   0.01653  -0.01321   0.01655   0.00849
           D2          -0.00909   0.01023  -0.00909   0.01027  -0.00944
           D3          -0.01332  -0.00382   0.00424   0.01407  -0.00473
           D4          -0.00424  -0.01405   0.01333   0.00381   0.00471
                          D1        D2        D3        D4
           D1           0.03517
           D2           0.00285   0.02090
           D3           0.00141   0.01046   0.02093
           D4          -0.00143  -0.01044   0.01048   0.02092
 ITU=  0
     Eigenvalues ---    0.04088   0.04768   0.06564   0.15618   0.15746
     Eigenvalues ---    0.24411   0.35440   0.35462   0.36140
 Angle between quadratic step and forces=  36.83 degrees.
 Linear search not attempted -- first point.
 Iteration  1 RMS(Cart)=  0.00006953 RMS(Int)=  0.00000001
 Iteration  2 RMS(Cart)=  0.00000001 RMS(Int)=  0.00000001
 Variable       Old X    -DE/DX   Delta X   Delta X   Delta X     New X
                                 (Linear)    (Quad)   (Total)
    R1        2.05237   0.00002   0.00000   0.00005   0.00005   2.05242
    R2        2.05242  -0.00000   0.00000  -0.00000  -0.00000   2.05242
    R3        2.05243  -0.00001   0.00000  -0.00004  -0.00004   2.05239
    R4        3.37795   0.00003   0.00000   0.00018   0.00018   3.37812
    A1        1.92897  -0.00001   0.00000  -0.00010  -0.00010   1.92887
    A2        1.92871   0.00001   0.00000   0.00015   0.00015   1.92886
    A3        1.89210   0.00000   0.00000  -0.00006  -0.00006   1.89205
    A4        1.92867   0.00001   0.00000   0.00015   0.00015   1.92882
    A5        1.89214  -0.00001   0.00000  -0.00010  -0.00010   1.89203
    A6        1.89210  -0.00001   0.00000  -0.00005  -0.00005   1.89205
    D1       -2.14062  -0.00000   0.00000  -0.00008  -0.00008  -2.14069
    D2        2.09463  -0.00001   0.00000  -0.00021  -0.00021   2.09442
    D3       -2.09430  -0.00001   0.00000  -0.00012  -0.00012  -2.09442
    D4        2.09426   0.00000   0.00000   0.00009   0.00009   2.09435
         Item               Value     Threshold  Converged?
 Maximum Force            0.000030     0.000450     YES
 RMS     Force            0.000011     0.000300     YES
 Maximum Displacement     0.000115     0.001800     YES
 RMS     Displacement     0.000070     0.001200     YES
 Predicted change in Energy=-7.037595D-09
 Optimization completed.
    -- Stationary point found.
                           ----------------------------
                           !   Optimized Parameters   !
                           ! (Angstroms and Degrees)  !
 --------------------------                            --------------------------
 ! Name  Definition              Value          Derivative Info.                !
 --------------------------------------------------------------------------------
 ! R1    R(1,2)                  1.0861         -DE/DX =    0.0                 !
 ! R2    R(1,3)                  1.0861         -DE/DX =    0.0                 !
 ! R3    R(1,4)                  1.0861         -DE/DX =    0.0                 !
 ! R4    R(1,5)                  1.7875         -DE/DX =    0.0                 !
 ! A1    A(2,1,3)              110.522          -DE/DX =    0.0                 !
 ! A2    A(2,1,4)              110.5072         -DE/DX =    0.0                 !
 ! A3    A(2,1,5)              108.4096         -DE/DX =    0.0                 !
 ! A4    A(3,1,4)              110.5046         -DE/DX =    0.0                 !
 ! A5    A(3,1,5)              108.4114         -DE/DX =    0.0                 !
 ! A6    A(4,1,5)              108.4091         -DE/DX =    0.0                 !
 ! D1    D(2,1,4,3)           -122.6483         -DE/DX =    0.0                 !
 ! D2    D(2,1,5,3)            120.0134         -DE/DX =    0.0                 !
 ! D3    D(2,1,5,4)           -119.9944         -DE/DX =    0.0                 !
 ! D4    D(3,1,5,4)            119.9922         -DE/DX =    0.0                 !
 --------------------------------------------------------------------------------
 GradGradGradGradGradGradGradGradGradGradGradGradGradGradGradGradGradGrad


 ----------------------------------------------------------------------

 Electric dipole moment (input orientation):
 (Debye = 10**-18 statcoulomb cm , SI units = C m)
                  (au)            (Debye)         (10**-30 SI)
   Tot        0.827078D+00      0.210222D+01      0.701226D+01
   x         -0.827076D+00     -0.210222D+01     -0.701225D+01
   y          0.139571D-02      0.354755D-02      0.118334D-01
   z         -0.807214D-03     -0.205173D-02     -0.684385D-02

 Dipole polarizability, Alpha (input orientation).
 (esu units = cm**3 , SI units = C**2 m**2 J**-1)
 Alpha(0;0):
               (au)            (10**-24 esu)      (10**-40 SI)
   iso        0.233218D+02      0.345593D+01      0.384524D+01
   aniso      0.107205D+02      0.158861D+01      0.176757D+01
   xx         0.304687D+02      0.451499D+01      0.502361D+01
   yx        -0.233440D-01     -0.345922D-02     -0.384891D-02
   yy         0.197399D+02      0.292515D+01      0.325467D+01
   zx         0.179655D-01      0.266221D-02      0.296211D-02
   zy        -0.744411D-02     -0.110310D-02     -0.122737D-02
   zz         0.197568D+02      0.292765D+01      0.325745D+01

 ----------------------------------------------------------------------

 Dipole orientation:
     6          0.00108756          0.00737901         -1.04345343
     1          1.58327603          1.14264286         -0.39531770
     1          0.19273096         -1.93053757         -0.39524111
     1         -1.77313949          0.81014524         -0.39525946
    17          0.00103045          0.00740464         -4.42140048

 Electric dipole moment (dipole orientation):
 (Debye = 10**-18 statcoulomb cm , SI units = C m)
                  (au)            (Debye)         (10**-30 SI)
   Tot        0.827078D+00      0.210222D+01      0.701226D+01
   x          0.000000D+00      0.000000D+00      0.000000D+00
   y          0.000000D+00      0.000000D+00      0.000000D+00
   z          0.827078D+00      0.210222D+01      0.701226D+01

 Dipole polarizability, Alpha (dipole orientation).
 (esu units = cm**3 , SI units = C**2 m**2 J**-1)
 Alpha(0;0):
               (au)            (10**-24 esu)      (10**-40 SI)
   iso        0.233218D+02      0.345593D+01      0.384524D+01
   aniso      0.107205D+02      0.158861D+01      0.176757D+01
   xx         0.197567D+02      0.292764D+01      0.325744D+01
   yx        -0.743710D-02     -0.110206D-02     -0.122621D-02
   yy         0.197399D+02      0.292515D+01      0.325467D+01
   zx        -0.751445D-02     -0.111353D-02     -0.123897D-02
   zy         0.525877D-02      0.779269D-03      0.867054D-03
   zz         0.304688D+02      0.451500D+01      0.502362D+01

 ----------------------------------------------------------------------
 Unable to Open any file for archive entry.
 1\1\GINC-MASTER\Freq\RM062X\6-311+G(d,p)\C1H3Cl1\HAHAHA\25-Dec-2025\0\
 \#N Geom=AllCheck Guess=TCheck SCRF=Check GenChk RM062X/6-311+G(d,p) F
 req\\Title Card Required\\0,1\C,0.5521767613,0.0029739622,0.0011078295
 \H,0.2093987691,0.6057210617,0.8370157926\H,0.2073272931,-1.0217742475
 ,0.1039167338\H,0.2107991587,0.4267712535,-0.9388225449\Cl,2.339706017
 8,-0.0000290299,0.002822189\\Version=ES64L-G16RevC.01\State=1-A\HF=-50
 0.0916614\RMSD=1.525e-09\RMSF=1.893e-05\ZeroPoint=0.0381381\Thermal=0.
 0411438\ETot=-500.0505176\HTot=-500.0495734\GTot=-500.0771742\Dipole=-
 0.8270765,0.0013957,-0.0008072\DipoleDeriv=0.6948496,-0.0013372,0.0011
 199,-0.0010417,0.0927454,0.0000737,0.0002564,0.000103,0.0926293,-0.056
 5874,0.0254071,0.0344549,0.0321725,0.0517376,-0.0595346,0.0436646,-0.0
 597102,0.0123692,-0.0568538,-0.0426102,0.0039798,-0.053764,-0.0292496,
 0.0121519,0.0050125,0.012372,0.0936667,-0.0563303,0.0177788,-0.0389791
 ,0.0221573,0.0736879,0.0470997,-0.0486682,0.0470086,-0.0094743,-0.5250
 782,0.0007615,-0.0005755,0.000476,-0.1889213,0.0002092,-0.0002654,0.00
 02266,-0.1891909\Polar=30.4686807,-0.023344,19.7399136,0.0179655,-0.00
 74441,19.7567665\Quadrupole=0.8736835,-0.4366836,-0.437,-0.0022223,0.0
 014171,0.0002125\PG=C01 [X(C1H3Cl1)]\NImag=0\\0.35706683,0.00038892,0.
 57915357,-0.00016293,-0.00022324,0.57923786,-0.06601449,0.04835038,0.0
 6714439,0.08012983,0.04848833,-0.14074004,-0.12411137,-0.05058429,0.14
 292391,0.06736246,-0.12413803,-0.22340076,-0.07019322,0.13418419,0.232
 35880,-0.06638067,-0.08280086,0.00829211,0.00518468,0.00933564,-0.0023
 2797,0.08051178,-0.08305561,-0.31003391,0.02600115,-0.00448189,-0.0137
 3362,0.00333759,0.08656773,0.32600281,0.00832686,0.02602394,-0.0537688
 6,-0.00858628,-0.02374859,0.00434232,-0.00865584,-0.02815396,0.0489589
 5,-0.06579208,0.03385396,-0.07514966,0.00515333,-0.00518467,0.00811635
 ,0.00517411,-0.00267002,0.00931079,0.07990111,0.03397282,-0.09555161,0
 .09833178,-0.00668435,0.00874083,-0.01627062,0.00958076,-0.00899977,0.
 02648632,-0.03543074,0.09405193,-0.07541382,0.09833247,-0.26923426,-0.
 00688605,0.01083720,-0.01803724,0.00043198,-0.00059302,-0.00034116,0.0
 7859985,-0.10630369,0.28182929,-0.15887960,0.00020760,-0.00012391,-0.0
 2445335,-0.00205501,-0.00295763,-0.02448990,0.00363980,-0.00039554,-0.
 02443647,-0.00143850,0.00326804,0.23225931,0.00020555,-0.03282801,0.00
 000168,0.01340015,0.00280892,0.00288687,-0.02268327,0.00676449,-0.0006
 0770,0.00943147,0.00175861,-0.00227296,-0.00035390,0.02149600,-0.00011
 258,0.00000486,-0.03283397,0.01852115,0.00283857,0.00473688,0.00225972
 ,-0.00059176,0.00080875,-0.02087733,-0.00224378,0.00578337,0.00020903,
 -0.00000789,0.02150496\\0.00004252,-0.00000477,0.00003925,0.00000052,0
 .00000205,-0.00002526,-0.00000846,0.00000078,-0.00001473,-0.00000414,0
 .00000274,-0.00000745,-0.00003044,-0.00000080,0.00000819\\\@
 The archive entry for this job was punched.


 EVANS BOLDLY PUT 50 ATM. OF ETHYLENE IN A CELL WITH 25 ATM. OF OXYGEN.
 THE APPARATUS SUBSEQUENTLY BLEW UP, BUT LUCKILY NOT BEFORE HE
 OBTAINED THE SPECTRA SHOWN IN FIGURE 8.
 A.J.MERER AND R.S.MULLIKEN, CHEM.REV. 69, 645 (1969)
 Job cpu time:       0 days  0 hours  0 minutes 28.2 seconds.
 Elapsed time:       0 days  0 hours  0 minutes  1.9 seconds.
 File lengths (MBytes):  RWF=      7 Int=      0 D2E=      0 Chk=      2 Scr=      1
 Normal termination of Gaussian 16 at Thu Dec 25 18:55:16 2025.
