 Entering Gaussian System, Link 0=g16
 Initial command:
 /opt/software/gaussian/g16/l1.exe "/tmp/Gau-2981866.inp" -scrdir="/tmp/"
 Entering Link 1 = /opt/software/gaussian/g16/l1.exe PID=   2981868.
  
 Copyright (c) 1988-2019, Gaussian, Inc.  All Rights Reserved.
  
 This is part of the Gaussian(R) 16 program.  It is based on
 the Gaussian(R) 09 system (copyright 2009, Gaussian, Inc.),
 the Gaussian(R) 03 system (copyright 2003, Gaussian, Inc.),
 the Gaussian(R) 98 system (copyright 1998, Gaussian, Inc.),
 the Gaussian(R) 94 system (copyright 1995, Gaussian, Inc.),
 the Gaussian 92(TM) system (copyright 1992, Gaussian, Inc.),
 the Gaussian 90(TM) system (copyright 1990, Gaussian, Inc.),
 the Gaussian 88(TM) system (copyright 1988, Gaussian, Inc.),
 the Gaussian 86(TM) system (copyright 1986, Carnegie Mellon
 University), and the Gaussian 82(TM) system (copyright 1983,
 Carnegie Mellon University). Gaussian is a federally registered
 trademark of Gaussian, Inc.
  
 This software contains proprietary and confidential information,
 including trade secrets, belonging to Gaussian, Inc.
  
 This software is provided under written license and may be
 used, copied, transmitted, or stored only in accord with that
 written license.
  
 The following legend is applicable only to US Government
 contracts under FAR:
  
                    RESTRICTED RIGHTS LEGEND
  
 Use, reproduction and disclosure by the US Government is
 subject to restrictions as set forth in subparagraphs (a)
 and (c) of the Commercial Computer Software - Restricted
 Rights clause in FAR 52.227-19.
  
 Gaussian, Inc.
 340 Quinnipiac St., Bldg. 40, Wallingford CT 06492
  
  
 ---------------------------------------------------------------
 Warning -- This program may not be used in any manner that
 competes with the business of Gaussian, Inc. or will provide
 assistance to any competitor of Gaussian, Inc.  The licensee
 of this program is prohibited from giving any competitor of
 Gaussian, Inc. access to this program.  By using this program,
 the user acknowledges that Gaussian, Inc. is engaged in the
 business of creating and licensing software in the field of
 computational chemistry and represents and warrants to the
 licensee that it is not a competitor of Gaussian, Inc. and that
 it will not use this program in any manner prohibited above.
 ---------------------------------------------------------------
  

 Cite this work as:
 Gaussian 16, Revision C.01,
 M. J. Frisch, G. W. Trucks, H. B. Schlegel, G. E. Scuseria, 
 M. A. Robb, J. R. Cheeseman, G. Scalmani, V. Barone, 
 G. A. Petersson, H. Nakatsuji, X. Li, M. Caricato, A. V. Marenich, 
 J. Bloino, B. G. Janesko, R. Gomperts, B. Mennucci, H. P. Hratchian, 
 J. V. Ortiz, A. F. Izmaylov, J. L. Sonnenberg, D. Williams-Young, 
 F. Ding, F. Lipparini, F. Egidi, J. Goings, B. Peng, A. Petrone, 
 T. Henderson, D. Ranasinghe, V. G. Zakrzewski, J. Gao, N. Rega, 
 G. Zheng, W. Liang, M. Hada, M. Ehara, K. Toyota, R. Fukuda, 
 J. Hasegawa, M. Ishida, T. Nakajima, Y. Honda, O. Kitao, H. Nakai, 
 T. Vreven, K. Throssell, J. A. Montgomery, Jr., J. E. Peralta, 
 F. Ogliaro, M. J. Bearpark, J. J. Heyd, E. N. Brothers, K. N. Kudin, 
 V. N. Staroverov, T. A. Keith, R. Kobayashi, J. Normand, 
 K. Raghavachari, A. P. Rendell, J. C. Burant, S. S. Iyengar, 
 J. Tomasi, M. Cossi, J. M. Millam, M. Klene, C. Adamo, R. Cammi, 
 J. W. Ochterski, R. L. Martin, K. Morokuma, O. Farkas, 
 J. B. Foresman, and D. J. Fox, Gaussian, Inc., Wallingford CT, 2019.
 
 ******************************************
 Gaussian 16:  ES64L-G16RevC.01  3-Jul-2019
                25-Dec-2025 
 ******************************************
 %nprocshared=16
 Will use up to   16 processors via shared memory.
 %mem=50GB
 %chk=CH3Cl-Cl-ts.chk
 --------------------------------------------------------
 # opt=(calcfc,ts,noeigen) freq 6-311+g(d,p) em=gd3 m062x
 --------------------------------------------------------
 1/5=1,10=4,11=1,18=20,26=3,38=1/1,3;
 2/9=110,12=2,17=6,18=5,40=1/2;
 3/5=4,6=6,7=111,11=2,25=1,30=1,71=2,74=-55,124=31,140=1/1,2,3;
 4//1;
 5/5=2,38=5/2;
 8/6=4,10=90,11=11/1;
 11/6=1,8=1,9=11,15=111,16=1/1,2,10;
 10/6=1,13=1/2;
 6/7=2,8=2,9=2,10=2,28=1/1;
 7/10=1,25=1/1,2,3,16;
 1/5=1,10=4,11=1,18=20,26=3/3(2);
 2/9=110/2;
 99//99;
 2/9=110/2;
 3/5=4,6=6,7=111,11=2,25=1,30=1,71=1,74=-55,124=31/1,2,3;
 4/5=5,16=3,69=1/1;
 5/5=2,38=5/2;
 7//1,2,3,16;
 1/5=1,11=1,18=20,26=3/3(-5);
 2/9=110/2;
 6/7=2,8=2,9=2,10=2,19=2,28=1/1;
 99/9=1/99;
 -------------------
 Title Card Required
 -------------------
 Symbolic Z-matrix:
 Charge = -1 Multiplicity = 1
 C                    -0.70907   0.28445  -0.30968 
 H                    -0.19982  -0.6041    0.00021 
 H                    -0.19716   1.01679  -0.89835 
 H                    -1.73024   0.44066  -0.03091 
 Cl                    0.07937   1.50504   1.89443 
 Cl                   -1.49752  -0.93613  -2.5138 
 
 Add virtual bond connecting atoms Cl6        and C1         Dist= 4.99D+00.
 Add virtual bond connecting atoms Cl5        and C1         Dist= 4.99D+00.

 GradGradGradGradGradGradGradGradGradGradGradGradGradGradGradGradGradGrad
 Berny optimization.
 Initialization pass.
                           ----------------------------
                           !    Initial Parameters    !
                           ! (Angstroms and Degrees)  !
 --------------------------                            --------------------------
 ! Name  Definition              Value          Derivative Info.                !
 --------------------------------------------------------------------------------
 ! R1    R(1,2)                  1.07           calculate D2E/DX2 analytically  !
 ! R2    R(1,3)                  1.07           calculate D2E/DX2 analytically  !
 ! R3    R(1,4)                  1.07           calculate D2E/DX2 analytically  !
 ! R4    R(1,5)                  2.64           calculate D2E/DX2 analytically  !
 ! R5    R(1,6)                  2.64           calculate D2E/DX2 analytically  !
 ! A1    A(2,1,3)              119.9999         calculate D2E/DX2 analytically  !
 ! A2    A(2,1,4)              119.9999         calculate D2E/DX2 analytically  !
 ! A3    A(2,1,5)               90.0001         calculate D2E/DX2 analytically  !
 ! A4    A(2,1,6)               90.0001         calculate D2E/DX2 analytically  !
 ! A5    A(3,1,4)              120.0002         calculate D2E/DX2 analytically  !
 ! A6    A(3,1,5)               89.9999         calculate D2E/DX2 analytically  !
 ! A7    A(3,1,6)               89.9999         calculate D2E/DX2 analytically  !
 ! A8    A(4,1,5)               90.0            calculate D2E/DX2 analytically  !
 ! A9    A(4,1,6)               90.0            calculate D2E/DX2 analytically  !
 ! A10   L(5,1,6,2,-1)         180.0002         calculate D2E/DX2 analytically  !
 ! A11   L(5,1,6,2,-2)         180.0            calculate D2E/DX2 analytically  !
 ! D1    D(2,1,4,3)           -180.0            calculate D2E/DX2 analytically  !
 ! D2    D(2,1,5,3)            119.9999         calculate D2E/DX2 analytically  !
 ! D3    D(2,1,6,3)           -119.9999         calculate D2E/DX2 analytically  !
 ! D4    D(2,1,5,4)           -119.9999         calculate D2E/DX2 analytically  !
 ! D5    D(2,1,6,4)            119.9999         calculate D2E/DX2 analytically  !
 ! D6    D(3,1,5,4)            120.0002         calculate D2E/DX2 analytically  !
 ! D7    D(3,1,6,4)           -120.0002         calculate D2E/DX2 analytically  !
 --------------------------------------------------------------------------------
 Trust Radius=3.00D-01 FncErr=1.00D-07 GrdErr=1.00D-06 EigMax=2.50D+02 EigMin=1.00D-04
 Number of steps in this run=     33 maximum allowed number of steps=    100.
 Search for a saddle point of order  1.
 GradGradGradGradGradGradGradGradGradGradGradGradGradGradGradGradGradGrad

                          Input orientation:                          
 ---------------------------------------------------------------------
 Center     Atomic      Atomic             Coordinates (Angstroms)
 Number     Number       Type             X           Y           Z
 ---------------------------------------------------------------------
      1          6           0       -0.709071    0.284450   -0.309683
      2          1           0       -0.199817   -0.604103    0.000207
      3          1           0       -0.197158    1.016786   -0.898351
      4          1           0       -1.730237    0.440665   -0.030905
      5         17           0        0.079370    1.505039    1.894432
      6         17           0       -1.497517   -0.936128   -2.513803
 ---------------------------------------------------------------------
                    Distance matrix (angstroms):
                    1          2          3          4          5
     1  C    0.000000
     2  H    1.070000   0.000000
     3  H    1.070000   1.853294   0.000000
     4  H    1.070000   1.853293   1.853296   0.000000
     5  Cl   2.640000   2.848598   2.848595   2.848595   0.000000
     6  Cl   2.640000   2.848598   2.848595   2.848595   5.280000
                    6
     6  Cl   0.000000
 This structure is nearly, but not quite of a higher symmetry.
 Consider Symm=Loose if the higher symmetry is desired.
 Stoichiometry    CH3Cl2(1-)
 Framework group  C1[X(CH3Cl2)]
 Deg. of freedom    12
 Full point group                 C1      NOp   1
 Largest Abelian subgroup         C1      NOp   1
 Largest concise Abelian subgroup C1      NOp   1
                         Standard orientation:                         
 ---------------------------------------------------------------------
 Center     Atomic      Atomic             Coordinates (Angstroms)
 Number     Number       Type             X           Y           Z
 ---------------------------------------------------------------------
      1          6           0       -0.000001    0.000001    0.000004
      2          1           0       -0.272320    0.147960    1.024138
      3          1           0        0.118859   -0.991584   -0.384093
      4          1           0        0.153456    0.843629   -0.640030
      5         17           0        2.552594    0.045616    0.672147
      6         17           0       -2.552594   -0.045617   -0.672150
 ---------------------------------------------------------------------
 Rotational constants (GHZ):         145.9967731           1.0331386           1.0331386
 Standard basis: 6-311+G(d,p) (5D, 7F)
 There are   103 symmetry adapted cartesian basis functions of A   symmetry.
 There are   100 symmetry adapted basis functions of A   symmetry.
   100 basis functions,   166 primitive gaussians,   103 cartesian basis functions
    22 alpha electrons       22 beta electrons
       nuclear repulsion energy        98.5623538455 Hartrees.
 NAtoms=    6 NActive=    6 NUniq=    6 SFac= 1.00D+00 NAtFMM=   60 NAOKFM=F Big=F
 Integral buffers will be    131072 words long.
 Raffenetti 2 integral format.
 Two-electron integral symmetry is turned on.
 Nuclear repulsion after empirical dispersion term =       98.5623242836 Hartrees.
 One-electron integrals computed using PRISM.
 NBasis=   100 RedAO= T EigKep=  1.75D-03  NBF=   100
 NBsUse=   100 1.00D-06 EigRej= -1.00D+00 NBFU=   100
 ExpMin= 4.38D-02 ExpMax= 1.06D+05 ExpMxC= 3.62D+03 IAcc=3 IRadAn=         5 AccDes= 0.00D+00
 Harris functional with IExCor= 1009 and IRadAn=       5 diagonalized for initial guess.
 HarFok:  IExCor= 1009 AccDes= 0.00D+00 IRadAn=         5 IDoV= 1 UseB2=F ITyADJ=14
 ICtDFT=  3500011 ScaDFX=  1.000000  1.000000  1.000000  1.000000
 FoFCou: FMM=F IPFlag=           0 FMFlag=      100000 FMFlg1=           0
         NFxFlg=           0 DoJE=T BraDBF=F KetDBF=T FulRan=T
         wScrn=  0.000000 ICntrl=       500 IOpCl=  0 I1Cent=   200000004 NGrid=           0
         NMat0=    1 NMatS0=      1 NMatT0=    0 NMatD0=    1 NMtDS0=    0 NMtDT0=    0
 Petite list used in FoFCou.
 Keep R1 ints in memory in canonical form, NReq=27595313.
 Requested convergence on RMS density matrix=1.00D-08 within 128 cycles.
 Requested convergence on MAX density matrix=1.00D-06.
 Requested convergence on             energy=1.00D-06.
 No special actions if energy rises.
 SCF Done:  E(RM062X) =  -960.340443730     A.U. after   11 cycles
            NFock= 11  Conv=0.26D-08     -V/T= 2.0024
 DoSCS=F DFT=T ScalE2(SS,OS)=  1.000000  1.000000
 Range of M.O.s used for correlation:     1   100
 NBasis=   100 NAE=    22 NBE=    22 NFC=     0 NFV=     0
 NROrb=    100 NOA=    22 NOB=    22 NVA=    78 NVB=    78

 **** Warning!!: The largest alpha MO coefficient is  0.12307751D+02

 Symmetrizing basis deriv contribution to polar:
 IMax=3 JMax=2 DiffMx= 0.00D+00
 G2DrvN: will do     7 centers at a time, making    1 passes.
 Calling FoFCou, ICntrl=  3107 FMM=F I1Cent=   0 AccDes= 0.00D+00.
 End of G2Drv F.D. properties file   721 does not exist.
 End of G2Drv F.D. properties file   722 does not exist.
 End of G2Drv F.D. properties file   788 does not exist.
          IDoAtm=111111
          Differentiating once with respect to nuclear coordinates.
 Keep R1 ints in memory in canonical form, NReq=27544921.
          There are    21 degrees of freedom in the 1st order CPHF.  IDoFFX=6 NUNeed=     0.
     15 vectors produced by pass  0 Test12= 8.17D-15 4.76D-09 XBig12= 6.72D-02 1.84D-01.
 AX will form    15 AO Fock derivatives at one time.
     15 vectors produced by pass  1 Test12= 8.17D-15 4.76D-09 XBig12= 3.05D-03 1.62D-02.
     15 vectors produced by pass  2 Test12= 8.17D-15 4.76D-09 XBig12= 3.74D-04 8.21D-03.
     15 vectors produced by pass  3 Test12= 8.17D-15 4.76D-09 XBig12= 3.36D-05 1.65D-03.
     15 vectors produced by pass  4 Test12= 8.17D-15 4.76D-09 XBig12= 5.75D-07 4.54D-04.
     15 vectors produced by pass  5 Test12= 8.17D-15 4.76D-09 XBig12= 2.82D-09 1.26D-05.
     12 vectors produced by pass  6 Test12= 8.17D-15 4.76D-09 XBig12= 2.02D-11 9.10D-07.
      2 vectors produced by pass  7 Test12= 8.17D-15 4.76D-09 XBig12= 1.59D-13 1.30D-07.
      1 vectors produced by pass  8 Test12= 8.17D-15 4.76D-09 XBig12= 9.69D-16 1.51D-08.
 InvSVY:  IOpt=1 It=  1 EMax= 8.88D-16
 Solved reduced A of dimension   105 with    15 vectors.
 End of Minotr F.D. properties file   721 does not exist.
 End of Minotr F.D. properties file   722 does not exist.
 End of Minotr F.D. properties file   788 does not exist.

 **********************************************************************

            Population analysis using the SCF Density.

 **********************************************************************

 Orbital symmetries:
       Occupied  (A) (A) (A) (A) (A) (A) (A) (A) (A) (A) (A) (A)
                 (A) (A) (A) (A) (A) (A) (A) (A) (A) (A)
       Virtual   (A) (A) (A) (A) (A) (A) (A) (A) (A) (A) (A) (A)
                 (A) (A) (A) (A) (A) (A) (A) (A) (A) (A) (A) (A)
                 (A) (A) (A) (A) (A) (A) (A) (A) (A) (A) (A) (A)
                 (A) (A) (A) (A) (A) (A) (A) (A) (A) (A) (A) (A)
                 (A) (A) (A) (A) (A) (A) (A) (A) (A) (A) (A) (A)
                 (A) (A) (A) (A) (A) (A) (A) (A) (A) (A) (A) (A)
                 (A) (A) (A) (A) (A) (A)
 The electronic state is 1-A.
 Alpha  occ. eigenvalues -- -102.44400-102.44399 -10.50096  -9.58419  -9.58418
 Alpha  occ. eigenvalues --   -7.30690  -7.30689  -7.30417  -7.30417  -7.30417
 Alpha  occ. eigenvalues --   -7.30416  -0.69714  -0.66564  -0.64434  -0.39775
 Alpha  occ. eigenvalues --   -0.39774  -0.21578  -0.17275  -0.17274  -0.17010
 Alpha  occ. eigenvalues --   -0.17009  -0.15676
 Alpha virt. eigenvalues --    0.08217   0.14973   0.17816   0.17816   0.18657
 Alpha virt. eigenvalues --    0.19948   0.22054   0.22054   0.24292   0.24292
 Alpha virt. eigenvalues --    0.26434   0.30656   0.30656   0.32677   0.34544
 Alpha virt. eigenvalues --    0.39645   0.54455   0.54455   0.63583   0.65090
 Alpha virt. eigenvalues --    0.65234   0.65238   0.68007   0.68365   0.68369
 Alpha virt. eigenvalues --    0.76655   0.76655   0.78597   0.93417   1.15329
 Alpha virt. eigenvalues --    1.15330   1.15780   1.16328   1.16329   1.16430
 Alpha virt. eigenvalues --    1.16430   1.16672   1.16672   1.17920   1.24002
 Alpha virt. eigenvalues --    1.24002   1.32884   1.32892   1.56108   1.62087
 Alpha virt. eigenvalues --    1.62088   1.68100   1.95607   2.07194   2.07195
 Alpha virt. eigenvalues --    2.09500   2.09501   2.47458   2.49328   2.49333
 Alpha virt. eigenvalues --    2.49637   2.49642   2.59007   2.61229   2.61229
 Alpha virt. eigenvalues --    2.64402   2.79374   2.79375   2.98465   3.12995
 Alpha virt. eigenvalues --    3.88537   3.88537  10.01669  10.05890  24.08825
 Alpha virt. eigenvalues --   26.10134  26.10136  26.11221  26.11223  26.24636
 Alpha virt. eigenvalues --   26.26054 216.08767 216.13974
          Condensed to atoms (all electrons):
               1          2          3          4          5          6
     1  C    4.926172   0.390109   0.390105   0.390112   0.134376   0.134379
     2  H    0.390109   0.467500  -0.019085  -0.019089  -0.022779  -0.022779
     3  H    0.390105  -0.019085   0.467503  -0.019087  -0.022784  -0.022776
     4  H    0.390112  -0.019089  -0.019087   0.467501  -0.022774  -0.022779
     5  Cl   0.134376  -0.022779  -0.022784  -0.022774  17.589933   0.000586
     6  Cl   0.134379  -0.022779  -0.022776  -0.022779   0.000586  17.589918
 Mulliken charges:
               1
     1  C   -0.365254
     2  H    0.226122
     3  H    0.226124
     4  H    0.226116
     5  Cl  -0.656559
     6  Cl  -0.656549
 Sum of Mulliken charges =  -1.00000
 Mulliken charges with hydrogens summed into heavy atoms:
               1
     1  C    0.313109
     5  Cl  -0.656559
     6  Cl  -0.656549
 APT charges:
               1
     1  C   -0.945304
     2  H    0.402790
     3  H    0.402794
     4  H    0.402780
     5  Cl  -0.631538
     6  Cl  -0.631522
 Sum of APT charges =  -1.00000
 APT charges with hydrogens summed into heavy atoms:
               1
     1  C    0.263060
     5  Cl  -0.631538
     6  Cl  -0.631522
 Electronic spatial extent (au):  <R**2>=            977.8300
 Charge=             -1.0000 electrons
 Dipole moment (field-independent basis, Debye):
    X=             -0.0000    Y=              0.0001    Z=              0.0000  Tot=              0.0001
 Quadrupole moment (field-independent basis, Debye-Ang):
   XX=            -82.4310   YY=            -37.4928   ZZ=            -40.5953
   XY=             -0.8027   XZ=            -11.8369   YZ=             -0.2112
 Traceless Quadrupole moment (field-independent basis, Debye-Ang):
   XX=            -28.9246   YY=             16.0136   ZZ=             12.9110
   XY=             -0.8027   XZ=            -11.8369   YZ=             -0.2112
 Octapole moment (field-independent basis, Debye-Ang**2):
  XXX=             -0.0205  YYY=             -0.5047  ZZZ=              1.0271  XYY=              0.2990
  XXY=              0.0233  XXZ=              0.0753  XZZ=             -0.2789  YZZ=              0.4820
  YYZ=             -1.1025  XYZ=             -0.1074
 Hexadecapole moment (field-independent basis, Debye-Ang**3):
 XXXX=          -1514.9547 YYYY=            -57.5895 ZZZZ=           -143.4865 XXXY=            -15.0685
 XXXZ=           -222.0983 YYYX=            -10.9769 YYYZ=             -2.8902 ZZZX=           -165.9411
 ZZZY=             -2.9644 XXYY=           -223.9715 XXZZ=           -253.9199 YYZZ=            -33.3341
 XXYZ=             -2.0402 YYXZ=            -53.9383 ZZXY=             -3.9419
 N-N= 9.856232428356D+01 E-N=-2.487129119680D+03  KE= 9.579947051129D+02
  Exact polarizability:       0.000       0.000       0.000       0.000       0.000       0.000
 Approx polarizability:     138.488       1.840      35.548      27.115       0.484      42.655
 Calling FoFJK, ICntrl=    100127 FMM=F ISym2X=0 I1Cent= 0 IOpClX= 0 NMat=1 NMatS=1 NMatT=0.
 ***** Axes restored to original set *****
 -------------------------------------------------------------------
 Center     Atomic                   Forces (Hartrees/Bohr)
 Number     Number              X              Y              Z
 -------------------------------------------------------------------
      1        6          -0.000005150   -0.000006129    0.000003522
      2        1           0.002037069   -0.003590168    0.001258210
      3        1           0.002054289    0.002947141   -0.002359240
      4        1          -0.004097587    0.000631179    0.001113813
      5       17          -0.006485843   -0.010062267   -0.018202276
      6       17           0.006497222    0.010080245    0.018185971
 -------------------------------------------------------------------
 Cartesian Forces:  Max     0.018202276 RMS     0.007471115
 FormGI is forming the generalized inverse of G from B-inverse, IUseBI=4.

 GradGradGradGradGradGradGradGradGradGradGradGradGradGradGradGradGradGrad
 Berny optimization.
 Internal  Forces:  Max     0.021786178 RMS     0.006609340
 Search for a saddle point.
 Step number   1 out of a maximum of   33
 All quantities printed in internal units (Hartrees-Bohrs-Radians)
 Swapping is turned off.
 Second derivative matrix not updated -- analytic derivatives used.
 ITU=  0
     Eigenvalues ---   -0.02496   0.01361   0.03001   0.03013   0.03314
     Eigenvalues ---    0.03319   0.03336   0.04007   0.04033   0.40155
     Eigenvalues ---    0.40542   0.40578
 Eigenvectors required to have negative eigenvalues:
                          R5        R4        D1        A7        A8
   1                    0.65337  -0.65335   0.31224  -0.09076   0.09048
                          A3        A4        A6        A9        A11
   1                    0.09041  -0.09016   0.08952  -0.08948   0.00129
 RFO step:  Lambda0=7.367757446D-12 Lambda=-2.47653577D-02.
 Linear search not attempted -- option 19 set.
 Maximum step size (   0.300) exceeded in Quadratic search.
    -- Step size scaled by   0.374
 Iteration  1 RMS(Cart)=  0.05898317 RMS(Int)=  0.00357154
 Iteration  2 RMS(Cart)=  0.00357154 RMS(Int)=  0.00000000
 Iteration  3 RMS(Cart)=  0.00000001 RMS(Int)=  0.00000000
 Variable       Old X    -DE/DX   Delta X   Delta X   Delta X     New X
                                 (Linear)    (Quad)   (Total)
    R1        2.02201   0.00432   0.00000   0.00239   0.00239   2.02440
    R2        2.02201   0.00430   0.00000   0.00240   0.00240   2.02441
    R3        2.02201   0.00429   0.00000   0.00240   0.00240   2.02441
    R4        4.98888  -0.02179   0.00000  -0.21211  -0.21211   4.77676
    R5        4.98888  -0.02178   0.00000  -0.21211  -0.21211   4.77677
    A1        2.09439   0.00001   0.00000   0.00001   0.00001   2.09440
    A2        2.09439  -0.00000   0.00000   0.00002   0.00002   2.09441
    A3        1.57080   0.00001   0.00000   0.00006   0.00006   1.57086
    A4        1.57080   0.00001   0.00000  -0.00013  -0.00013   1.57067
    A5        2.09440  -0.00000   0.00000  -0.00003  -0.00003   2.09437
    A6        1.57079  -0.00003   0.00000  -0.00002  -0.00002   1.57078
    A7        1.57079  -0.00001   0.00000   0.00007   0.00007   1.57086
    A8        1.57080   0.00002   0.00000  -0.00003  -0.00003   1.57077
    A9        1.57080   0.00000   0.00000   0.00004   0.00004   1.57084
   A10        3.14160   0.00002   0.00000  -0.00007  -0.00007   3.14153
   A11        3.14159   0.00003   0.00000  -0.00002  -0.00002   3.14157
    D1       -3.14159  -0.00000   0.00000   0.00002   0.00002  -3.14157
    D2        2.09439   0.00001   0.00000   0.00001   0.00001   2.09440
    D3       -2.09439  -0.00001   0.00000  -0.00001  -0.00001  -2.09440
    D4       -2.09439   0.00000   0.00000  -0.00002  -0.00002  -2.09441
    D5        2.09439  -0.00000   0.00000   0.00002   0.00002   2.09441
    D6        2.09440  -0.00000   0.00000  -0.00003  -0.00003   2.09437
    D7       -2.09440   0.00000   0.00000   0.00003   0.00003  -2.09437
         Item               Value     Threshold  Converged?
 Maximum Force            0.021786     0.000450     NO 
 RMS     Force            0.006609     0.000300     NO 
 Maximum Displacement     0.177159     0.001800     NO 
 RMS     Displacement     0.062554     0.001200     NO 
 Predicted change in Energy=-8.651212D-03
 GradGradGradGradGradGradGradGradGradGradGradGradGradGradGradGradGradGrad

                          Input orientation:                          
 ---------------------------------------------------------------------
 Center     Atomic      Atomic             Coordinates (Angstroms)
 Number     Number       Type             X           Y           Z
 ---------------------------------------------------------------------
      1          6           0       -0.709075    0.284474   -0.309691
      2          1           0       -0.199241   -0.605172    0.000491
      3          1           0       -0.196553    1.017704   -0.899024
      4          1           0       -1.731442    0.440902   -0.030564
      5         17           0        0.045851    1.453109    1.800740
      6         17           0       -1.463970   -0.884310   -2.420054
 ---------------------------------------------------------------------
                    Distance matrix (angstroms):
                    1          2          3          4          5
     1  C    0.000000
     2  H    1.071267   0.000000
     3  H    1.071269   1.855495   0.000000
     4  H    1.071269   1.855499   1.855481   0.000000
     5  Cl   2.527754   2.745448   2.745371   2.745361   0.000000
     6  Cl   2.527757   2.745268   2.745457   2.745431   5.055511
                    6
     6  Cl   0.000000
 Stoichiometry    CH3Cl2(1-)
 Framework group  C1[X(CH3Cl2)]
 Deg. of freedom    12
 Full point group                 C1      NOp   1
 Largest Abelian subgroup         C1      NOp   1
 Largest concise Abelian subgroup C1      NOp   1
                         Standard orientation:                         
 ---------------------------------------------------------------------
 Center     Atomic      Atomic             Coordinates (Angstroms)
 Number     Number       Type             X           Y           Z
 ---------------------------------------------------------------------
      1          6           0        0.000002   -0.000059    0.000028
      2          1           0       -0.000099    1.064895   -0.116103
      3          1           0        0.000048   -0.431972    0.980369
      4          1           0        0.000038   -0.633122   -0.864177
      5         17           0        2.527755    0.000018   -0.000008
      6         17           0       -2.527755    0.000015   -0.000007
 ---------------------------------------------------------------------
 Rotational constants (GHZ):         145.6512239           1.1265564           1.1265563
 Standard basis: 6-311+G(d,p) (5D, 7F)
 There are   103 symmetry adapted cartesian basis functions of A   symmetry.
 There are   100 symmetry adapted basis functions of A   symmetry.
   100 basis functions,   166 primitive gaussians,   103 cartesian basis functions
    22 alpha electrons       22 beta electrons
       nuclear repulsion energy       102.3650377985 Hartrees.
 NAtoms=    6 NActive=    6 NUniq=    6 SFac= 1.00D+00 NAtFMM=   60 NAOKFM=F Big=F
 Integral buffers will be    131072 words long.
 Raffenetti 2 integral format.
 Two-electron integral symmetry is turned on.
 Nuclear repulsion after empirical dispersion term =      102.3650145838 Hartrees.
 One-electron integrals computed using PRISM.
 NBasis=   100 RedAO= T EigKep=  1.24D-03  NBF=   100
 NBsUse=   100 1.00D-06 EigRej= -1.00D+00 NBFU=   100
 Initial guess from the checkpoint file:  "CH3Cl-Cl.chk"
 B after Tr=    -0.000000    0.000000    0.000000
         Rot=    0.712484    0.689792   -0.086166    0.095548 Ang=  89.13 deg.
 ExpMin= 4.38D-02 ExpMax= 1.06D+05 ExpMxC= 3.62D+03 IAcc=3 IRadAn=         5 AccDes= 0.00D+00
 Harris functional with IExCor= 1009 and IRadAn=       5 diagonalized for initial guess.
 HarFok:  IExCor= 1009 AccDes= 0.00D+00 IRadAn=         5 IDoV= 1 UseB2=F ITyADJ=14
 ICtDFT=  3500011 ScaDFX=  1.000000  1.000000  1.000000  1.000000
 FoFCou: FMM=F IPFlag=           0 FMFlag=      100000 FMFlg1=           0
         NFxFlg=           0 DoJE=T BraDBF=F KetDBF=T FulRan=T
         wScrn=  0.000000 ICntrl=       500 IOpCl=  0 I1Cent=   200000004 NGrid=           0
         NMat0=    1 NMatS0=      1 NMatT0=    0 NMatD0=    1 NMtDS0=    0 NMtDT0=    0
 Petite list used in FoFCou.
 Keep R1 ints in memory in canonical form, NReq=27595313.
 Requested convergence on RMS density matrix=1.00D-08 within 128 cycles.
 Requested convergence on MAX density matrix=1.00D-06.
 Requested convergence on             energy=1.00D-06.
 No special actions if energy rises.
 SCF Done:  E(RM062X) =  -960.348913113     A.U. after   10 cycles
            NFock= 10  Conv=0.17D-08     -V/T= 2.0024
 Calling FoFJK, ICntrl=      2127 FMM=F ISym2X=0 I1Cent= 0 IOpClX= 0 NMat=1 NMatS=1 NMatT=0.
 ***** Axes restored to original set *****
 -------------------------------------------------------------------
 Center     Atomic                   Forces (Hartrees/Bohr)
 Number     Number              X              Y              Z
 -------------------------------------------------------------------
      1        6           0.000003895   -0.000001409   -0.000000733
      2        1           0.001257839   -0.002258712    0.000806243
      3        1           0.001326107    0.001866120   -0.001510103
      4        1          -0.002591804    0.000398306    0.000704716
      5       17          -0.005290638   -0.008197965   -0.014797092
      6       17           0.005294601    0.008193661    0.014796969
 -------------------------------------------------------------------
 Cartesian Forces:  Max     0.014797092 RMS     0.006011557

 GradGradGradGradGradGradGradGradGradGradGradGradGradGradGradGradGradGrad
 Berny optimization.
 FormGI is forming the generalized inverse of G from B-inverse, IUseBI=4.
 Internal  Forces:  Max     0.017724317 RMS     0.005318128
 Search for a saddle point.
 Step number   2 out of a maximum of   33
 All quantities printed in internal units (Hartrees-Bohrs-Radians)
 Swapping is turned off.
 Update second derivatives using D2CorX and points    1    2
 ITU=  0  0
     Eigenvalues ---   -0.02496   0.01906   0.03001   0.03014   0.03314
     Eigenvalues ---    0.03319   0.03336   0.04007   0.04033   0.40156
     Eigenvalues ---    0.40542   0.40578
 Eigenvectors required to have negative eigenvalues:
                          R5        R4        D1        A7        A8
   1                    0.65338  -0.65334   0.31224  -0.09076   0.09048
                          A3        A4        A6        A9        A11
   1                    0.09041  -0.09017   0.08952  -0.08948   0.00129
 RFO step:  Lambda0=2.162836230D-11 Lambda=-1.72822537D-02.
 Linear search not attempted -- option 19 set.
 Maximum step size (   0.300) exceeded in Quadratic search.
    -- Step size scaled by   0.436
 Iteration  1 RMS(Cart)=  0.05898145 RMS(Int)=  0.00357519
 Iteration  2 RMS(Cart)=  0.00357524 RMS(Int)=  0.00000005
 Iteration  3 RMS(Cart)=  0.00000006 RMS(Int)=  0.00000004
 Variable       Old X    -DE/DX   Delta X   Delta X   Delta X     New X
                                 (Linear)    (Quad)   (Total)
    R1        2.02440   0.00271   0.00000   0.00127   0.00127   2.02567
    R2        2.02441   0.00274   0.00000   0.00144   0.00144   2.02585
    R3        2.02441   0.00272   0.00000   0.00136   0.00136   2.02576
    R4        4.77676  -0.01772   0.00000  -0.21213  -0.21213   4.56463
    R5        4.77677  -0.01772   0.00000  -0.21212  -0.21212   4.56465
    A1        2.09440   0.00000   0.00000   0.00004   0.00004   2.09444
    A2        2.09441  -0.00001   0.00000  -0.00017  -0.00017   2.09424
    A3        1.57086  -0.00001   0.00000  -0.00041  -0.00041   1.57044
    A4        1.57067   0.00000   0.00000  -0.00033  -0.00033   1.57034
    A5        2.09437   0.00000   0.00000   0.00014   0.00014   2.09451
    A6        1.57078   0.00000   0.00000   0.00064   0.00064   1.57142
    A7        1.57086  -0.00000   0.00000   0.00027   0.00027   1.57113
    A8        1.57077   0.00001   0.00000  -0.00020  -0.00020   1.57057
    A9        1.57084   0.00000   0.00000   0.00003   0.00003   1.57087
   A10        3.14153  -0.00001   0.00000  -0.00074  -0.00074   3.14079
   A11        3.14157   0.00000   0.00000  -0.00062  -0.00062   3.14095
    D1       -3.14157  -0.00000   0.00000   0.00003   0.00003  -3.14154
    D2        2.09440   0.00000   0.00000   0.00004   0.00004   2.09444
    D3       -2.09440  -0.00000   0.00000  -0.00004  -0.00004  -2.09444
    D4       -2.09441   0.00001   0.00000   0.00017   0.00017  -2.09424
    D5        2.09441  -0.00001   0.00000  -0.00017  -0.00017   2.09424
    D6        2.09437   0.00000   0.00000   0.00014   0.00014   2.09451
    D7       -2.09437  -0.00000   0.00000  -0.00014  -0.00014  -2.09451
         Item               Value     Threshold  Converged?
 Maximum Force            0.017724     0.000450     NO 
 RMS     Force            0.005318     0.000300     NO 
 Maximum Displacement     0.177802     0.001800     NO 
 RMS     Displacement     0.062556     0.001200     NO 
 Predicted change in Energy=-6.667485D-03
 GradGradGradGradGradGradGradGradGradGradGradGradGradGradGradGradGradGrad

                          Input orientation:                          
 ---------------------------------------------------------------------
 Center     Atomic      Atomic             Coordinates (Angstroms)
 Number     Number       Type             X           Y           Z
 ---------------------------------------------------------------------
      1          6           0       -0.709002    0.284814   -0.309898
      2          1           0       -0.198898   -0.605396    0.000547
      3          1           0       -0.196138    1.018464   -0.899798
      4          1           0       -1.732022    0.441299   -0.030440
      5         17           0        0.012166    1.400545    1.707452
      6         17           0       -1.430536   -0.833017   -2.325965
 ---------------------------------------------------------------------
                    Distance matrix (angstroms):
                    1          2          3          4          5
     1  C    0.000000
     2  H    1.071940   0.000000
     3  H    1.072033   1.856758   0.000000
     4  H    1.071986   1.856610   1.856837   0.000000
     5  Cl   2.415500   2.642323   2.643318   2.642463   0.000000
     6  Cl   2.415509   2.642234   2.643042   2.642766   4.831008
                    6
     6  Cl   0.000000
 Stoichiometry    CH3Cl2(1-)
 Framework group  C1[X(CH3Cl2)]
 Deg. of freedom    12
 Full point group                 C1      NOp   1
 Largest Abelian subgroup         C1      NOp   1
 Largest concise Abelian subgroup C1      NOp   1
                         Standard orientation:                         
 ---------------------------------------------------------------------
 Center     Atomic      Atomic             Coordinates (Angstroms)
 Number     Number       Type             X           Y           Z
 ---------------------------------------------------------------------
      1          6           0        0.000005   -0.000847   -0.000503
      2          1           0       -0.000049    0.374874    1.003434
      3          1           0       -0.000152   -1.058226   -0.177149
      4          1           0        0.000168    0.680888   -0.827783
      5         17           0        2.415504    0.000219    0.000135
      6         17           0       -2.415504    0.000225    0.000131
 ---------------------------------------------------------------------
 Rotational constants (GHZ):         145.4553847           1.2332341           1.2332326
 Standard basis: 6-311+G(d,p) (5D, 7F)
 There are   103 symmetry adapted cartesian basis functions of A   symmetry.
 There are   100 symmetry adapted basis functions of A   symmetry.
   100 basis functions,   166 primitive gaussians,   103 cartesian basis functions
    22 alpha electrons       22 beta electrons
       nuclear repulsion energy       106.5129484935 Hartrees.
 NAtoms=    6 NActive=    6 NUniq=    6 SFac= 1.00D+00 NAtFMM=   60 NAOKFM=F Big=F
 Integral buffers will be    131072 words long.
 Raffenetti 2 integral format.
 Two-electron integral symmetry is turned on.
 Nuclear repulsion after empirical dispersion term =      106.5129312016 Hartrees.
 One-electron integrals computed using PRISM.
 NBasis=   100 RedAO= T EigKep=  8.70D-04  NBF=   100
 NBsUse=   100 1.00D-06 EigRej= -1.00D+00 NBFU=   100
 Initial guess from the checkpoint file:  "CH3Cl-Cl.chk"
 B after Tr=     0.000000   -0.000000   -0.000000
         Rot=    0.789571   -0.613659    0.000001    0.000001 Ang= -75.71 deg.
 ExpMin= 4.38D-02 ExpMax= 1.06D+05 ExpMxC= 3.62D+03 IAcc=3 IRadAn=         5 AccDes= 0.00D+00
 Harris functional with IExCor= 1009 and IRadAn=       5 diagonalized for initial guess.
 HarFok:  IExCor= 1009 AccDes= 0.00D+00 IRadAn=         5 IDoV= 1 UseB2=F ITyADJ=14
 ICtDFT=  3500011 ScaDFX=  1.000000  1.000000  1.000000  1.000000
 FoFCou: FMM=F IPFlag=           0 FMFlag=      100000 FMFlg1=           0
         NFxFlg=           0 DoJE=T BraDBF=F KetDBF=T FulRan=T
         wScrn=  0.000000 ICntrl=       500 IOpCl=  0 I1Cent=   200000004 NGrid=           0
         NMat0=    1 NMatS0=      1 NMatT0=    0 NMatD0=    1 NMtDS0=    0 NMtDT0=    0
 Petite list used in FoFCou.
 Keep R1 ints in memory in canonical form, NReq=27595313.
 Requested convergence on RMS density matrix=1.00D-08 within 128 cycles.
 Requested convergence on MAX density matrix=1.00D-06.
 Requested convergence on             energy=1.00D-06.
 No special actions if energy rises.
 SCF Done:  E(RM062X) =  -960.355058824     A.U. after    9 cycles
            NFock=  9  Conv=0.92D-08     -V/T= 2.0023
 Calling FoFJK, ICntrl=      2127 FMM=F ISym2X=0 I1Cent= 0 IOpClX= 0 NMat=1 NMatS=1 NMatT=0.
 ***** Axes restored to original set *****
 -------------------------------------------------------------------
 Center     Atomic                   Forces (Hartrees/Bohr)
 Number     Number              X              Y              Z
 -------------------------------------------------------------------
      1        6          -0.000014308   -0.000005330    0.000008220
      2        1           0.000721382   -0.001245844    0.000435487
      3        1           0.000662590    0.000977876   -0.000768022
      4        1          -0.001370356    0.000216681    0.000359342
      5       17          -0.003129700   -0.004822067   -0.008778779
      6       17           0.003130393    0.004878684    0.008743753
 -------------------------------------------------------------------
 Cartesian Forces:  Max     0.008778779 RMS     0.003547065

 GradGradGradGradGradGradGradGradGradGradGradGradGradGradGradGradGradGrad
 Berny optimization.
 FormGI is forming the generalized inverse of G from B-inverse, IUseBI=4.
 Internal  Forces:  Max     0.010493496 RMS     0.003137967
 Search for a saddle point.
 Step number   3 out of a maximum of   33
 All quantities printed in internal units (Hartrees-Bohrs-Radians)
 Swapping is turned off.
 Update second derivatives using D2CorX and points    1    2    3
 ITU=  0  0  0
     Eigenvalues ---   -0.02496   0.03001   0.03014   0.03314   0.03319
     Eigenvalues ---    0.03335   0.03404   0.04007   0.04033   0.40160
     Eigenvalues ---    0.40542   0.40579
 Eigenvectors required to have negative eigenvalues:
                          R4        R5        D1        A7        A8
   1                   -0.65339   0.65333   0.31224  -0.09076   0.09048
                          A3        A4        A6        A9        A11
   1                    0.09041  -0.09017   0.08952  -0.08948   0.00129
 RFO step:  Lambda0=1.354174672D-10 Lambda=-5.56028857D-03.
 Linear search not attempted -- option 19 set.
 Maximum step size (   0.300) exceeded in Quadratic search.
    -- Step size scaled by   0.801
 Iteration  1 RMS(Cart)=  0.05900028 RMS(Int)=  0.00357251
 Iteration  2 RMS(Cart)=  0.00357300 RMS(Int)=  0.00000028
 Iteration  3 RMS(Cart)=  0.00000020 RMS(Int)=  0.00000026
 Variable       Old X    -DE/DX   Delta X   Delta X   Delta X     New X
                                 (Linear)    (Quad)   (Total)
    R1        2.02567   0.00150   0.00000   0.00129   0.00129   2.02697
    R2        2.02585   0.00141   0.00000   0.00089   0.00089   2.02674
    R3        2.02576   0.00143   0.00000   0.00100   0.00100   2.02677
    R4        4.56463  -0.01049   0.00000  -0.21207  -0.21207   4.35256
    R5        4.56465  -0.01049   0.00000  -0.21214  -0.21214   4.35251
    A1        2.09444   0.00000   0.00000   0.00003   0.00003   2.09447
    A2        2.09424   0.00000   0.00000   0.00034   0.00034   2.09457
    A3        1.57044   0.00003   0.00000   0.00131   0.00131   1.57176
    A4        1.57034   0.00003   0.00000   0.00143   0.00143   1.57177
    A5        2.09451  -0.00001   0.00000  -0.00037  -0.00037   2.09414
    A6        1.57142  -0.00004   0.00000  -0.00144  -0.00144   1.56999
    A7        1.57113  -0.00002   0.00000  -0.00097  -0.00097   1.57016
    A8        1.57057   0.00001   0.00000   0.00007   0.00007   1.57063
    A9        1.57087  -0.00001   0.00000  -0.00040  -0.00040   1.57047
   A10        3.14079   0.00006   0.00000   0.00274   0.00274   3.14353
   A11        3.14095   0.00004   0.00000   0.00119   0.00120   3.14214
    D1       -3.14154  -0.00000   0.00000  -0.00006  -0.00006   3.14158
    D2        2.09444   0.00000   0.00000   0.00003   0.00003   2.09447
    D3       -2.09444  -0.00000   0.00000  -0.00003  -0.00003  -2.09447
    D4       -2.09424  -0.00000   0.00000  -0.00034  -0.00034  -2.09457
    D5        2.09424   0.00000   0.00000   0.00034   0.00034   2.09457
    D6        2.09451  -0.00001   0.00000  -0.00037  -0.00037   2.09414
    D7       -2.09451   0.00001   0.00000   0.00037   0.00037  -2.09414
         Item               Value     Threshold  Converged?
 Maximum Force            0.010493     0.000450     NO 
 RMS     Force            0.003138     0.000300     NO 
 Maximum Displacement     0.179126     0.001800     NO 
 RMS     Displacement     0.062569     0.001200     NO 
 Predicted change in Energy=-2.920691D-03
 GradGradGradGradGradGradGradGradGradGradGradGradGradGradGradGradGradGrad

                          Input orientation:                          
 ---------------------------------------------------------------------
 Center     Atomic      Atomic             Coordinates (Angstroms)
 Number     Number       Type             X           Y           Z
 ---------------------------------------------------------------------
      1          6           0       -0.708891    0.283746   -0.309365
      2          1           0       -0.198354   -0.606972    0.001273
      3          1           0       -0.195853    1.017901   -0.899345
      4          1           0       -1.732482    0.440429   -0.030070
      5         17           0       -0.021519    1.350705    1.612663
      6         17           0       -1.397330   -0.779099   -2.233258
 ---------------------------------------------------------------------
                    Distance matrix (angstroms):
                    1          2          3          4          5
     1  C    0.000000
     2  H    1.072624   0.000000
     3  H    1.072506   1.857776   0.000000
     4  H    1.072518   1.857843   1.857510   0.000000
     5  Cl   2.303274   2.541722   2.539948   2.540585   0.000000
     6  Cl   2.303248   2.541712   2.540094   2.540396   4.606520
                    6
     6  Cl   0.000000
 Stoichiometry    CH3Cl2(1-)
 Framework group  C1[X(CH3Cl2)]
 Deg. of freedom    12
 Full point group                 C1      NOp   1
 Largest Abelian subgroup         C1      NOp   1
 Largest concise Abelian subgroup C1      NOp   1
                         Standard orientation:                         
 ---------------------------------------------------------------------
 Center     Atomic      Atomic             Coordinates (Angstroms)
 Number     Number       Type             X           Y           Z
 ---------------------------------------------------------------------
      1          6           0       -0.000011    0.001723   -0.000641
      2          1           0       -0.000003    1.071020   -0.085058
      3          1           0        0.000084   -0.459838    0.967465
      4          1           0       -0.000102   -0.606130   -0.884275
      5         17           0        2.303263   -0.000453    0.000166
      6         17           0       -2.303258   -0.000452    0.000170
 ---------------------------------------------------------------------
 Rotational constants (GHZ):         145.3008234           1.3557806           1.3557776
 Standard basis: 6-311+G(d,p) (5D, 7F)
 There are   103 symmetry adapted cartesian basis functions of A   symmetry.
 There are   100 symmetry adapted basis functions of A   symmetry.
   100 basis functions,   166 primitive gaussians,   103 cartesian basis functions
    22 alpha electrons       22 beta electrons
       nuclear repulsion energy       111.0480001503 Hartrees.
 NAtoms=    6 NActive=    6 NUniq=    6 SFac= 1.00D+00 NAtFMM=   60 NAOKFM=F Big=F
 Integral buffers will be    131072 words long.
 Raffenetti 2 integral format.
 Two-electron integral symmetry is turned on.
 Nuclear repulsion after empirical dispersion term =      111.0479878186 Hartrees.
 One-electron integrals computed using PRISM.
 NBasis=   100 RedAO= T EigKep=  6.13D-04  NBF=   100
 NBsUse=   100 1.00D-06 EigRej= -1.00D+00 NBFU=   100
 Initial guess from the checkpoint file:  "CH3Cl-Cl.chk"
 B after Tr=     0.000000    0.000000   -0.000000
         Rot=    0.798627    0.601827   -0.000002   -0.000001 Ang=  74.00 deg.
 ExpMin= 4.38D-02 ExpMax= 1.06D+05 ExpMxC= 3.62D+03 IAcc=3 IRadAn=         5 AccDes= 0.00D+00
 Harris functional with IExCor= 1009 and IRadAn=       5 diagonalized for initial guess.
 HarFok:  IExCor= 1009 AccDes= 0.00D+00 IRadAn=         5 IDoV= 1 UseB2=F ITyADJ=14
 ICtDFT=  3500011 ScaDFX=  1.000000  1.000000  1.000000  1.000000
 FoFCou: FMM=F IPFlag=           0 FMFlag=      100000 FMFlg1=           0
         NFxFlg=           0 DoJE=T BraDBF=F KetDBF=T FulRan=T
         wScrn=  0.000000 ICntrl=       500 IOpCl=  0 I1Cent=   200000004 NGrid=           0
         NMat0=    1 NMatS0=      1 NMatT0=    0 NMatD0=    1 NMtDS0=    0 NMtDT0=    0
 Petite list used in FoFCou.
 Keep R1 ints in memory in canonical form, NReq=27595313.
 Requested convergence on RMS density matrix=1.00D-08 within 128 cycles.
 Requested convergence on MAX density matrix=1.00D-06.
 Requested convergence on             energy=1.00D-06.
 No special actions if energy rises.
 SCF Done:  E(RM062X) =  -960.357186935     A.U. after    9 cycles
            NFock=  9  Conv=0.67D-08     -V/T= 2.0022
 Calling FoFJK, ICntrl=      2127 FMM=F ISym2X=0 I1Cent= 0 IOpClX= 0 NMat=1 NMatS=1 NMatT=0.
 ***** Axes restored to original set *****
 -------------------------------------------------------------------
 Center     Atomic                   Forces (Hartrees/Bohr)
 Number     Number              X              Y              Z
 -------------------------------------------------------------------
      1        6          -0.000000220    0.000062812   -0.000037319
      2        1           0.000049075   -0.000127003    0.000053189
      3        1           0.000132461    0.000144284   -0.000134213
      4        1          -0.000204660    0.000026978    0.000067091
      5       17           0.000423280    0.000586390    0.001183717
      6       17          -0.000399936   -0.000693461   -0.001132464
 -------------------------------------------------------------------
 Cartesian Forces:  Max     0.001183717 RMS     0.000470089

 GradGradGradGradGradGradGradGradGradGradGradGradGradGradGradGradGradGrad
 Berny optimization.
 FormGI is forming the generalized inverse of G from B-inverse, IUseBI=4.
 Internal  Forces:  Max     0.001385741 RMS     0.000417304
 Search for a saddle point.
 Step number   4 out of a maximum of   33
 All quantities printed in internal units (Hartrees-Bohrs-Radians)
 Swapping is turned off.
 Update second derivatives using D2CorX and points    2    3    4
 ITU=  0  0  0  0
     Eigenvalues ---   -0.02496   0.03002   0.03015   0.03314   0.03320
     Eigenvalues ---    0.03336   0.04007   0.04033   0.05591   0.40163
     Eigenvalues ---    0.40542   0.40579
 Eigenvectors required to have negative eigenvalues:
                          R5        R4        D1        A7        A8
   1                    0.65337  -0.65335   0.31224  -0.09076   0.09049
                          A3        A4        A6        A9        A11
   1                    0.09041  -0.09017   0.08952  -0.08948   0.00129
 RFO step:  Lambda0=1.925985760D-11 Lambda=-7.02806372D-05.
 Linear search not attempted -- option 19 set.
 Iteration  1 RMS(Cart)=  0.00765690 RMS(Int)=  0.00000737
 Iteration  2 RMS(Cart)=  0.00001394 RMS(Int)=  0.00000048
 Iteration  3 RMS(Cart)=  0.00000000 RMS(Int)=  0.00000048
 Variable       Old X    -DE/DX   Delta X   Delta X   Delta X     New X
                                 (Linear)    (Quad)   (Total)
    R1        2.02697   0.00014   0.00000   0.00055   0.00055   2.02752
    R2        2.02674   0.00024   0.00000   0.00086   0.00086   2.02760
    R3        2.02677   0.00022   0.00000   0.00079   0.00079   2.02756
    R4        4.35256   0.00139   0.00000   0.02474   0.02474   4.37729
    R5        4.35251   0.00139   0.00000   0.02479   0.02479   4.37730
    A1        2.09447  -0.00000   0.00000  -0.00004  -0.00004   2.09443
    A2        2.09457  -0.00001   0.00000  -0.00031  -0.00031   2.09426
    A3        1.57176  -0.00007   0.00000  -0.00209  -0.00209   1.56967
    A4        1.57177  -0.00007   0.00000  -0.00211  -0.00211   1.56966
    A5        2.09414   0.00001   0.00000   0.00035   0.00035   2.09449
    A6        1.56999   0.00006   0.00000   0.00178   0.00177   1.57176
    A7        1.57016   0.00005   0.00000   0.00149   0.00149   1.57165
    A8        1.57063   0.00001   0.00000   0.00032   0.00032   1.57095
    A9        1.57047   0.00002   0.00000   0.00062   0.00062   1.57108
   A10        3.14353  -0.00015   0.00000  -0.00420  -0.00420   3.13933
   A11        3.14214  -0.00005   0.00000  -0.00135  -0.00135   3.14080
    D1        3.14158  -0.00000   0.00000  -0.00000  -0.00000   3.14158
    D2        2.09447  -0.00000   0.00000  -0.00004  -0.00004   2.09443
    D3       -2.09447   0.00000   0.00000   0.00004   0.00004  -2.09443
    D4       -2.09457   0.00001   0.00000   0.00031   0.00031  -2.09426
    D5        2.09457  -0.00001   0.00000  -0.00031  -0.00031   2.09426
    D6        2.09414   0.00001   0.00000   0.00035   0.00035   2.09449
    D7       -2.09414  -0.00001   0.00000  -0.00035  -0.00035  -2.09449
         Item               Value     Threshold  Converged?
 Maximum Force            0.001386     0.000450     NO 
 RMS     Force            0.000417     0.000300     NO 
 Maximum Displacement     0.023360     0.001800     NO 
 RMS     Displacement     0.007660     0.001200     NO 
 Predicted change in Energy=-3.518474D-05
 GradGradGradGradGradGradGradGradGradGradGradGradGradGradGradGradGradGrad

                          Input orientation:                          
 ---------------------------------------------------------------------
 Center     Atomic      Atomic             Coordinates (Angstroms)
 Number     Number       Type             X           Y           Z
 ---------------------------------------------------------------------
      1          6           0       -0.709229    0.285283   -0.310090
      2          1           0       -0.198635   -0.605712    0.000672
      3          1           0       -0.195899    1.019612   -0.900427
      4          1           0       -1.733179    0.441886   -0.030457
      5         17           0       -0.016971    1.353765    1.625024
      6         17           0       -1.400517   -0.788126   -2.242824
 ---------------------------------------------------------------------
                    Distance matrix (angstroms):
                    1          2          3          4          5
     1  C    0.000000
     2  H    1.072917   0.000000
     3  H    1.072960   1.858403   0.000000
     4  H    1.072936   1.858293   1.858451   0.000000
     5  Cl   2.316364   2.551680   2.553738   2.552942   0.000000
     6  Cl   2.316365   2.551679   2.553634   2.553069   4.632726
                    6
     6  Cl   0.000000
 Stoichiometry    CH3Cl2(1-)
 Framework group  C1[X(CH3Cl2)]
 Deg. of freedom    12
 Full point group                 C1      NOp   1
 Largest Abelian subgroup         C1      NOp   1
 Largest concise Abelian subgroup C1      NOp   1
                         Standard orientation:                         
 ---------------------------------------------------------------------
 Center     Atomic      Atomic             Coordinates (Angstroms)
 Number     Number       Type             X           Y           Z
 ---------------------------------------------------------------------
      1          6           0       -0.000000   -0.001562   -0.001548
      2          1           0       -0.000001    0.466204    0.964032
      3          1           0       -0.000058   -1.071702   -0.079283
      4          1           0        0.000070    0.600900   -0.889373
      5         17           0        2.316362    0.000410    0.000410
      6         17           0       -2.316363    0.000412    0.000408
 ---------------------------------------------------------------------
 Rotational constants (GHZ):         145.1944531           1.3405510           1.3405497
 Standard basis: 6-311+G(d,p) (5D, 7F)
 There are   103 symmetry adapted cartesian basis functions of A   symmetry.
 There are   100 symmetry adapted basis functions of A   symmetry.
   100 basis functions,   166 primitive gaussians,   103 cartesian basis functions
    22 alpha electrons       22 beta electrons
       nuclear repulsion energy       110.4912941709 Hartrees.
 NAtoms=    6 NActive=    6 NUniq=    6 SFac= 1.00D+00 NAtFMM=   60 NAOKFM=F Big=F
 Integral buffers will be    131072 words long.
 Raffenetti 2 integral format.
 Two-electron integral symmetry is turned on.
 Nuclear repulsion after empirical dispersion term =      110.4912813174 Hartrees.
 One-electron integrals computed using PRISM.
 NBasis=   100 RedAO= T EigKep=  6.38D-04  NBF=   100
 NBsUse=   100 1.00D-06 EigRej= -1.00D+00 NBFU=   100
 Initial guess from the checkpoint file:  "CH3Cl-Cl.chk"
 B after Tr=    -0.000000   -0.000000   -0.000000
         Rot=    0.825745   -0.564043    0.000001    0.000001 Ang= -68.67 deg.
 ExpMin= 4.38D-02 ExpMax= 1.06D+05 ExpMxC= 3.62D+03 IAcc=3 IRadAn=         5 AccDes= 0.00D+00
 Harris functional with IExCor= 1009 and IRadAn=       5 diagonalized for initial guess.
 HarFok:  IExCor= 1009 AccDes= 0.00D+00 IRadAn=         5 IDoV= 1 UseB2=F ITyADJ=14
 ICtDFT=  3500011 ScaDFX=  1.000000  1.000000  1.000000  1.000000
 FoFCou: FMM=F IPFlag=           0 FMFlag=      100000 FMFlg1=           0
         NFxFlg=           0 DoJE=T BraDBF=F KetDBF=T FulRan=T
         wScrn=  0.000000 ICntrl=       500 IOpCl=  0 I1Cent=   200000004 NGrid=           0
         NMat0=    1 NMatS0=      1 NMatT0=    0 NMatD0=    1 NMtDS0=    0 NMtDT0=    0
 Petite list used in FoFCou.
 Keep R1 ints in memory in canonical form, NReq=27595313.
 Requested convergence on RMS density matrix=1.00D-08 within 128 cycles.
 Requested convergence on MAX density matrix=1.00D-06.
 Requested convergence on             energy=1.00D-06.
 No special actions if energy rises.
 SCF Done:  E(RM062X) =  -960.357212850     A.U. after    9 cycles
            NFock=  9  Conv=0.22D-08     -V/T= 2.0023
 Calling FoFJK, ICntrl=      2127 FMM=F ISym2X=0 I1Cent= 0 IOpClX= 0 NMat=1 NMatS=1 NMatT=0.
 ***** Axes restored to original set *****
 -------------------------------------------------------------------
 Center     Atomic                   Forces (Hartrees/Bohr)
 Number     Number              X              Y              Z
 -------------------------------------------------------------------
      1        6           0.000027531   -0.000120841    0.000057305
      2        1           0.000023039   -0.000009985   -0.000002735
      3        1          -0.000018286    0.000006312    0.000007729
      4        1          -0.000014841    0.000000198   -0.000000670
      5       17          -0.000099492   -0.000080245   -0.000289599
      6       17           0.000082049    0.000204561    0.000227970
 -------------------------------------------------------------------
 Cartesian Forces:  Max     0.000289599 RMS     0.000110727

 GradGradGradGradGradGradGradGradGradGradGradGradGradGradGradGradGradGrad
 Berny optimization.
 FormGI is forming the generalized inverse of G from B-inverse, IUseBI=4.
 Internal  Forces:  Max     0.000309495 RMS     0.000103174
 Search for a saddle point.
 Step number   5 out of a maximum of   33
 All quantities printed in internal units (Hartrees-Bohrs-Radians)
 Swapping is turned off.
 Update second derivatives using D2CorX and points    2    3    4    5
 ITU=  0  0  0  0  0
     Eigenvalues ---   -0.02496   0.03007   0.03098   0.03314   0.03322
     Eigenvalues ---    0.03454   0.04007   0.04034   0.06874   0.40165
     Eigenvalues ---    0.40543   0.40580
 Eigenvectors required to have negative eigenvalues:
                          R4        R5        D1        A7        A8
   1                   -0.65338   0.65334   0.31224  -0.09077   0.09048
                          A3        A4        A6        A9        A11
   1                    0.09042  -0.09015   0.08951  -0.08949   0.00130
 RFO step:  Lambda0=5.074933529D-13 Lambda=-3.86353318D-06.
 Linear search not attempted -- option 19 set.
 Iteration  1 RMS(Cart)=  0.00249328 RMS(Int)=  0.00000306
 Iteration  2 RMS(Cart)=  0.00000353 RMS(Int)=  0.00000040
 Iteration  3 RMS(Cart)=  0.00000000 RMS(Int)=  0.00000040
 Variable       Old X    -DE/DX   Delta X   Delta X   Delta X     New X
                                 (Linear)    (Quad)   (Total)
    R1        2.02752   0.00002   0.00000   0.00005   0.00005   2.02757
    R2        2.02760  -0.00001   0.00000  -0.00010  -0.00010   2.02750
    R3        2.02756   0.00001   0.00000  -0.00002  -0.00002   2.02753
    R4        4.37729  -0.00031   0.00000  -0.00420  -0.00420   4.37310
    R5        4.37730  -0.00031   0.00000  -0.00420  -0.00420   4.37309
    A1        2.09443   0.00000   0.00000   0.00003   0.00003   2.09447
    A2        2.09426   0.00000   0.00000   0.00019   0.00019   2.09445
    A3        1.56967   0.00008   0.00000   0.00191   0.00191   1.57157
    A4        1.56966   0.00008   0.00000   0.00192   0.00192   1.57159
    A5        2.09449  -0.00000   0.00000  -0.00022  -0.00022   2.09427
    A6        1.57176  -0.00007   0.00000  -0.00171  -0.00171   1.57005
    A7        1.57165  -0.00006   0.00000  -0.00156  -0.00156   1.57009
    A8        1.57095  -0.00001   0.00000  -0.00019  -0.00019   1.57076
    A9        1.57108  -0.00002   0.00000  -0.00037  -0.00037   1.57071
   A10        3.13933   0.00016   0.00000   0.00383   0.00383   3.14316
   A11        3.14080   0.00007   0.00000   0.00156   0.00156   3.14236
    D1        3.14158   0.00000   0.00000   0.00001   0.00001   3.14159
    D2        2.09443   0.00000   0.00000   0.00004   0.00003   2.09446
    D3       -2.09443  -0.00000   0.00000  -0.00004  -0.00003  -2.09446
    D4       -2.09426  -0.00000   0.00000  -0.00019  -0.00019  -2.09445
    D5        2.09426   0.00000   0.00000   0.00019   0.00019   2.09445
    D6        2.09449  -0.00000   0.00000  -0.00022  -0.00022   2.09427
    D7       -2.09449   0.00000   0.00000   0.00022   0.00022  -2.09427
         Item               Value     Threshold  Converged?
 Maximum Force            0.000309     0.000450     YES
 RMS     Force            0.000103     0.000300     YES
 Maximum Displacement     0.007235     0.001800     NO 
 RMS     Displacement     0.002493     0.001200     NO 
 Predicted change in Energy=-1.931766D-06
 GradGradGradGradGradGradGradGradGradGradGradGradGradGradGradGradGradGrad

                          Input orientation:                          
 ---------------------------------------------------------------------
 Center     Atomic      Atomic             Coordinates (Angstroms)
 Number     Number       Type             X           Y           Z
 ---------------------------------------------------------------------
      1          6           0       -0.709018    0.283845   -0.309369
      2          1           0       -0.198366   -0.607150    0.001381
      3          1           0       -0.195768    1.018221   -0.899620
      4          1           0       -1.732981    0.440537   -0.029877
      5         17           0       -0.018012    1.355554    1.621748
      6         17           0       -1.400285   -0.784297   -2.242365
 ---------------------------------------------------------------------
                    Distance matrix (angstroms):
                    1          2          3          4          5
     1  C    0.000000
     2  H    1.072941   0.000000
     3  H    1.072908   1.858398   0.000000
     4  H    1.072925   1.858405   1.858278   0.000000
     5  Cl   2.314144   2.551534   2.550037   2.550733   0.000000
     6  Cl   2.314142   2.551546   2.550078   2.550687   4.628284
                    6
     6  Cl   0.000000
 Stoichiometry    CH3Cl2(1-)
 Framework group  C1[X(CH3Cl2)]
 Deg. of freedom    12
 Full point group                 C1      NOp   1
 Largest Abelian subgroup         C1      NOp   1
 Largest concise Abelian subgroup C1      NOp   1
                         Standard orientation:                         
 ---------------------------------------------------------------------
 Center     Atomic      Atomic             Coordinates (Angstroms)
 Number     Number       Type             X           Y           Z
 ---------------------------------------------------------------------
      1          6           0       -0.000001    0.001446   -0.000683
      2          1           0        0.000007    1.074311    0.012142
      3          1           0        0.000022   -0.546141    0.921965
      4          1           0       -0.000025   -0.523924   -0.936180
      5         17           0        2.314142   -0.000380    0.000181
      6         17           0       -2.314142   -0.000380    0.000182
 ---------------------------------------------------------------------
 Rotational constants (GHZ):         145.1998297           1.3431135           1.3431122
 Standard basis: 6-311+G(d,p) (5D, 7F)
 There are   103 symmetry adapted cartesian basis functions of A   symmetry.
 There are   100 symmetry adapted basis functions of A   symmetry.
   100 basis functions,   166 primitive gaussians,   103 cartesian basis functions
    22 alpha electrons       22 beta electrons
       nuclear repulsion energy       110.5845826538 Hartrees.
 NAtoms=    6 NActive=    6 NUniq=    6 SFac= 1.00D+00 NAtFMM=   60 NAOKFM=F Big=F
 Integral buffers will be    131072 words long.
 Raffenetti 2 integral format.
 Two-electron integral symmetry is turned on.
 Nuclear repulsion after empirical dispersion term =      110.5845698897 Hartrees.
 One-electron integrals computed using PRISM.
 NBasis=   100 RedAO= T EigKep=  6.34D-04  NBF=   100
 NBsUse=   100 1.00D-06 EigRej= -1.00D+00 NBFU=   100
 Initial guess from the checkpoint file:  "CH3Cl-Cl.chk"
 B after Tr=     0.000000    0.000000   -0.000000
         Rot=    0.850487    0.525995   -0.000001   -0.000000 Ang=  63.47 deg.
 Keep R1 ints in memory in canonical form, NReq=27595313.
 Requested convergence on RMS density matrix=1.00D-08 within 128 cycles.
 Requested convergence on MAX density matrix=1.00D-06.
 Requested convergence on             energy=1.00D-06.
 No special actions if energy rises.
 SCF Done:  E(RM062X) =  -960.357213280     A.U. after    7 cycles
            NFock=  7  Conv=0.74D-08     -V/T= 2.0022
 Calling FoFJK, ICntrl=      2127 FMM=F ISym2X=0 I1Cent= 0 IOpClX= 0 NMat=1 NMatS=1 NMatT=0.
 ***** Axes restored to original set *****
 -------------------------------------------------------------------
 Center     Atomic                   Forces (Hartrees/Bohr)
 Number     Number              X              Y              Z
 -------------------------------------------------------------------
      1        6          -0.000010859    0.000091210   -0.000046746
      2        1          -0.000012086    0.000014275   -0.000004187
      3        1           0.000008718   -0.000004499   -0.000002508
      4        1          -0.000007688   -0.000007189    0.000008805
      5       17           0.000002029   -0.000059864   -0.000000657
      6       17           0.000019886   -0.000033933    0.000045292
 -------------------------------------------------------------------
 Cartesian Forces:  Max     0.000091210 RMS     0.000032031

 GradGradGradGradGradGradGradGradGradGradGradGradGradGradGradGradGradGrad
 Berny optimization.
 FormGI is forming the generalized inverse of G from B-inverse, IUseBI=4.
 Internal  Forces:  Max     0.000126447 RMS     0.000037799
 Search for a saddle point.
 Step number   6 out of a maximum of   33
 All quantities printed in internal units (Hartrees-Bohrs-Radians)
 Swapping is turned off.
 Update second derivatives using D2CorX and points    2    3    4    5    6
 ITU=  0  0  0  0  0  0
     Eigenvalues ---   -0.02496   0.03007   0.03190   0.03314   0.03323
     Eigenvalues ---    0.04007   0.04033   0.05827   0.07128   0.40165
     Eigenvalues ---    0.40550   0.40596
 Eigenvectors required to have negative eigenvalues:
                          R4        R5        D1        A7        A8
   1                   -0.65337   0.65335   0.31224  -0.09059   0.09053
                          A4        A3        A6        A9        A11
   1                   -0.09040   0.09018   0.08971  -0.08943   0.00115
 RFO step:  Lambda0=2.609239214D-12 Lambda=-5.05399075D-07.
 Linear search not attempted -- option 19 set.
 Iteration  1 RMS(Cart)=  0.00106734 RMS(Int)=  0.00000068
 Iteration  2 RMS(Cart)=  0.00000067 RMS(Int)=  0.00000009
 Variable       Old X    -DE/DX   Delta X   Delta X   Delta X     New X
                                 (Linear)    (Quad)   (Total)
    R1        2.02757  -0.00002   0.00000  -0.00006  -0.00006   2.02750
    R2        2.02750   0.00000   0.00000   0.00001   0.00001   2.02752
    R3        2.02753   0.00001   0.00000   0.00001   0.00001   2.02755
    R4        4.37310  -0.00003   0.00000  -0.00063  -0.00063   4.37247
    R5        4.37309  -0.00003   0.00000  -0.00062  -0.00062   4.37247
    A1        2.09447  -0.00000   0.00000  -0.00004  -0.00004   2.09443
    A2        2.09445  -0.00000   0.00000  -0.00008  -0.00008   2.09437
    A3        1.57157  -0.00006   0.00000  -0.00096  -0.00096   1.57062
    A4        1.57159  -0.00006   0.00000  -0.00098  -0.00098   1.57061
    A5        2.09427   0.00000   0.00000   0.00012   0.00012   2.09439
    A6        1.57005   0.00005   0.00000   0.00074   0.00074   1.57079
    A7        1.57009   0.00005   0.00000   0.00071   0.00071   1.57080
    A8        1.57076   0.00001   0.00000   0.00023   0.00023   1.57099
    A9        1.57071   0.00002   0.00000   0.00026   0.00026   1.57098
   A10        3.14316  -0.00013   0.00000  -0.00193  -0.00193   3.14123
   A11        3.14236  -0.00004   0.00000  -0.00055  -0.00055   3.14181
    D1        3.14159   0.00000   0.00000   0.00001   0.00001  -3.14159
    D2        2.09446  -0.00000   0.00000  -0.00004  -0.00004   2.09443
    D3       -2.09446   0.00000   0.00000   0.00004   0.00004  -2.09443
    D4       -2.09445   0.00000   0.00000   0.00008   0.00008  -2.09437
    D5        2.09445  -0.00000   0.00000  -0.00008  -0.00008   2.09437
    D6        2.09427   0.00000   0.00000   0.00012   0.00012   2.09439
    D7       -2.09427  -0.00000   0.00000  -0.00012  -0.00012  -2.09439
         Item               Value     Threshold  Converged?
 Maximum Force            0.000126     0.000450     YES
 RMS     Force            0.000038     0.000300     YES
 Maximum Displacement     0.002860     0.001800     NO 
 RMS     Displacement     0.001067     0.001200     YES
 Predicted change in Energy=-2.526982D-07
 GradGradGradGradGradGradGradGradGradGradGradGradGradGradGradGradGradGrad

                          Input orientation:                          
 ---------------------------------------------------------------------
 Center     Atomic      Atomic             Coordinates (Angstroms)
 Number     Number       Type             X           Y           Z
 ---------------------------------------------------------------------
      1          6           0       -0.709200    0.284542   -0.309687
      2          1           0       -0.198577   -0.606435    0.001051
      3          1           0       -0.195904    1.018886   -0.899954
      4          1           0       -1.733165    0.441181   -0.030147
      5         17           0       -0.017760    1.354041    1.622100
      6         17           0       -1.399823   -0.785504   -2.241465
 ---------------------------------------------------------------------
                    Distance matrix (angstroms):
                    1          2          3          4          5
     1  C    0.000000
     2  H    1.072909   0.000000
     3  H    1.072916   1.858356   0.000000
     4  H    1.072932   1.858341   1.858353   0.000000
     5  Cl   2.313810   2.550286   2.550455   2.550656   0.000000
     6  Cl   2.313812   2.550282   2.550469   2.550647   4.627622
                    6
     6  Cl   0.000000
 Stoichiometry    CH3Cl2(1-)
 Framework group  C1[X(CH3Cl2)]
 Deg. of freedom    12
 Full point group                 C1      NOp   1
 Largest Abelian subgroup         C1      NOp   1
 Largest concise Abelian subgroup C1      NOp   1
                         Standard orientation:                         
 ---------------------------------------------------------------------
 Center     Atomic      Atomic             Coordinates (Angstroms)
 Number     Number       Type             X           Y           Z
 ---------------------------------------------------------------------
      1          6           0        0.000001   -0.000026   -0.000387
      2          1           0       -0.000003    0.606318    0.884758
      3          1           0        0.000008   -1.069765    0.082117
      4          1           0       -0.000005    0.463391   -0.968079
      5         17           0        2.313811    0.000006    0.000104
      6         17           0       -2.313811    0.000006    0.000104
 ---------------------------------------------------------------------
 Rotational constants (GHZ):         145.2033295           1.3434958           1.3434957
 Standard basis: 6-311+G(d,p) (5D, 7F)
 There are   103 symmetry adapted cartesian basis functions of A   symmetry.
 There are   100 symmetry adapted basis functions of A   symmetry.
   100 basis functions,   166 primitive gaussians,   103 cartesian basis functions
    22 alpha electrons       22 beta electrons
       nuclear repulsion energy       110.5985748829 Hartrees.
 NAtoms=    6 NActive=    6 NUniq=    6 SFac= 1.00D+00 NAtFMM=   60 NAOKFM=F Big=F
 Integral buffers will be    131072 words long.
 Raffenetti 2 integral format.
 Two-electron integral symmetry is turned on.
 Nuclear repulsion after empirical dispersion term =      110.5985621321 Hartrees.
 One-electron integrals computed using PRISM.
 NBasis=   100 RedAO= T EigKep=  6.33D-04  NBF=   100
 NBsUse=   100 1.00D-06 EigRej= -1.00D+00 NBFU=   100
 Initial guess from the checkpoint file:  "CH3Cl-Cl.chk"
 B after Tr=     0.000000   -0.000000    0.000000
         Rot=    0.887398   -0.461003    0.000000    0.000000 Ang= -54.90 deg.
 Keep R1 ints in memory in canonical form, NReq=27595313.
 Requested convergence on RMS density matrix=1.00D-08 within 128 cycles.
 Requested convergence on MAX density matrix=1.00D-06.
 Requested convergence on             energy=1.00D-06.
 No special actions if energy rises.
 SCF Done:  E(RM062X) =  -960.357215068     A.U. after    7 cycles
            NFock=  7  Conv=0.25D-08     -V/T= 2.0022
 Calling FoFJK, ICntrl=      2127 FMM=F ISym2X=0 I1Cent= 0 IOpClX= 0 NMat=1 NMatS=1 NMatT=0.
 ***** Axes restored to original set *****
 -------------------------------------------------------------------
 Center     Atomic                   Forces (Hartrees/Bohr)
 Number     Number              X              Y              Z
 -------------------------------------------------------------------
      1        6           0.000004394   -0.000005908    0.000001907
      2        1          -0.000005509   -0.000006262    0.000005653
      3        1           0.000008747   -0.000021293    0.000008026
      4        1          -0.000017756    0.000012388   -0.000000081
      5       17           0.000009300    0.000017176    0.000004528
      6       17           0.000000823    0.000003900   -0.000020033
 -------------------------------------------------------------------
 Cartesian Forces:  Max     0.000021293 RMS     0.000010650

 GradGradGradGradGradGradGradGradGradGradGradGradGradGradGradGradGradGrad
 Berny optimization.
 FormGI is forming the generalized inverse of G from B-inverse, IUseBI=4.
 Internal  Forces:  Max     0.000027717 RMS     0.000011782
 Search for a saddle point.
 Step number   7 out of a maximum of   33
 All quantities printed in internal units (Hartrees-Bohrs-Radians)
 Swapping is turned off.
 Update second derivatives using D2CorX and points    2    3    4    5    6
                                                      7
 ITU=  0  0  0  0  0  0  0
     Eigenvalues ---   -0.02496   0.02692   0.03173   0.03266   0.03318
     Eigenvalues ---    0.04007   0.04033   0.06720   0.08193   0.40165
     Eigenvalues ---    0.40565   0.40604
 Eigenvectors required to have negative eigenvalues:
                          R4        R5        D1        A8        A7
   1                   -0.65380   0.65291   0.31224   0.09093  -0.09073
                          A4        A3        A6        A9        A11
   1                   -0.09070   0.08989   0.08960  -0.08899   0.00178
 RFO step:  Lambda0=1.064127952D-12 Lambda=-4.12540594D-08.
 Linear search not attempted -- option 19 set.
 Iteration  1 RMS(Cart)=  0.00033424 RMS(Int)=  0.00000006
 Iteration  2 RMS(Cart)=  0.00000007 RMS(Int)=  0.00000001
 Variable       Old X    -DE/DX   Delta X   Delta X   Delta X     New X
                                 (Linear)    (Quad)   (Total)
    R1        2.02750   0.00000   0.00000   0.00001   0.00001   2.02752
    R2        2.02752  -0.00001   0.00000  -0.00004  -0.00004   2.02748
    R3        2.02755   0.00002   0.00000   0.00005   0.00005   2.02759
    R4        4.37247   0.00001   0.00000   0.00017   0.00017   4.37263
    R5        4.37247   0.00001   0.00000   0.00016   0.00016   4.37263
    A1        2.09443  -0.00000   0.00000  -0.00008  -0.00008   2.09435
    A2        2.09437   0.00000   0.00000   0.00001   0.00001   2.09438
    A3        1.57062   0.00001   0.00000   0.00005   0.00005   1.57067
    A4        1.57061   0.00001   0.00000   0.00006   0.00006   1.57067
    A5        2.09439   0.00000   0.00000   0.00007   0.00007   2.09445
    A6        1.57079  -0.00002   0.00000  -0.00028  -0.00028   1.57051
    A7        1.57080  -0.00002   0.00000  -0.00031  -0.00031   1.57049
    A8        1.57099   0.00001   0.00000   0.00023   0.00023   1.57121
    A9        1.57098   0.00001   0.00000   0.00025   0.00025   1.57123
   A10        3.14123   0.00002   0.00000   0.00011   0.00011   3.14134
   A11        3.14181   0.00003   0.00000   0.00061   0.00061   3.14242
    D1       -3.14159  -0.00000   0.00000  -0.00000  -0.00000   3.14159
    D2        2.09443  -0.00000   0.00000  -0.00008  -0.00008   2.09435
    D3       -2.09443   0.00000   0.00000   0.00008   0.00008  -2.09435
    D4       -2.09437  -0.00000   0.00000  -0.00001  -0.00001  -2.09438
    D5        2.09437   0.00000   0.00000   0.00001   0.00001   2.09438
    D6        2.09439   0.00000   0.00000   0.00007   0.00007   2.09445
    D7       -2.09439  -0.00000   0.00000  -0.00007  -0.00007  -2.09445
         Item               Value     Threshold  Converged?
 Maximum Force            0.000028     0.000450     YES
 RMS     Force            0.000012     0.000300     YES
 Maximum Displacement     0.000693     0.001800     YES
 RMS     Displacement     0.000334     0.001200     YES
 Predicted change in Energy=-2.062650D-08
 Optimization completed.
    -- Stationary point found.
                           ----------------------------
                           !   Optimized Parameters   !
                           ! (Angstroms and Degrees)  !
 --------------------------                            --------------------------
 ! Name  Definition              Value          Derivative Info.                !
 --------------------------------------------------------------------------------
 ! R1    R(1,2)                  1.0729         -DE/DX =    0.0                 !
 ! R2    R(1,3)                  1.0729         -DE/DX =    0.0                 !
 ! R3    R(1,4)                  1.0729         -DE/DX =    0.0                 !
 ! R4    R(1,5)                  2.3138         -DE/DX =    0.0                 !
 ! R5    R(1,6)                  2.3138         -DE/DX =    0.0                 !
 ! A1    A(2,1,3)              120.0018         -DE/DX =    0.0                 !
 ! A2    A(2,1,4)              119.9988         -DE/DX =    0.0                 !
 ! A3    A(2,1,5)               89.9897         -DE/DX =    0.0                 !
 ! A4    A(2,1,6)               89.9893         -DE/DX =    0.0                 !
 ! A5    A(3,1,4)              119.9995         -DE/DX =    0.0                 !
 ! A6    A(3,1,5)               89.9995         -DE/DX =    0.0                 !
 ! A7    A(3,1,6)               90.0002         -DE/DX =    0.0                 !
 ! A8    A(4,1,5)               90.0109         -DE/DX =    0.0                 !
 ! A9    A(4,1,6)               90.0103         -DE/DX =    0.0                 !
 ! A10   L(5,1,6,2,-1)         179.9791         -DE/DX =    0.0                 !
 ! A11   L(5,1,6,2,-2)         180.0124         -DE/DX =    0.0                 !
 ! D1    D(2,1,4,3)            180.0002         -DE/DX =    0.0                 !
 ! D2    D(2,1,5,3)            120.0018         -DE/DX =    0.0                 !
 ! D3    D(2,1,6,3)           -120.0018         -DE/DX =    0.0                 !
 ! D4    D(2,1,5,4)           -119.9988         -DE/DX =    0.0                 !
 ! D5    D(2,1,6,4)            119.9988         -DE/DX =    0.0                 !
 ! D6    D(3,1,5,4)            119.9995         -DE/DX =    0.0                 !
 ! D7    D(3,1,6,4)           -119.9995         -DE/DX =    0.0                 !
 --------------------------------------------------------------------------------
 GradGradGradGradGradGradGradGradGradGradGradGradGradGradGradGradGradGrad

                          Input orientation:                          
 ---------------------------------------------------------------------
 Center     Atomic      Atomic             Coordinates (Angstroms)
 Number     Number       Type             X           Y           Z
 ---------------------------------------------------------------------
      1          6           0       -0.709200    0.284542   -0.309687
      2          1           0       -0.198577   -0.606435    0.001051
      3          1           0       -0.195904    1.018886   -0.899954
      4          1           0       -1.733165    0.441181   -0.030147
      5         17           0       -0.017760    1.354041    1.622100
[...]
  Atom  AN      X      Y      Z        X      Y      Z        X      Y      Z
     1   6    -0.00   0.00   0.01    -0.00  -0.00   0.00    -0.00   0.00   0.00
     2   1    -0.00   0.01   0.02    -0.55  -0.00  -0.00    -0.61  -0.00   0.00
     3   1     0.00  -0.00   0.02    -0.25  -0.00   0.00     0.78   0.00  -0.00
     4   1    -0.00   0.01   0.01     0.80   0.00  -0.00    -0.17  -0.00  -0.00
     5  17     0.71  -0.00  -0.00    -0.00   0.00  -0.01     0.00  -0.01  -0.00
     6  17    -0.71  -0.00  -0.00    -0.00  -0.00   0.01     0.00   0.01   0.00
                      7                      8                      9
                      A                      A                      A
 Frequencies --   1093.3528              1401.1141              1402.0844
 Red. masses --      1.0436                 1.1044                 1.1041
 Frc consts  --      0.7350                 1.2774                 1.2788
 IR Inten    --    174.2622                 4.4405                 4.4717
  Atom  AN      X      Y      Z        X      Y      Z        X      Y      Z
     1   6    -0.02  -0.00   0.00    -0.00  -0.00  -0.09     0.00  -0.09   0.00
     2   1     0.58   0.00  -0.00     0.00  -0.39   0.18    -0.00   0.54  -0.42
     3   1     0.58   0.00  -0.00     0.00   0.06   0.81     0.00  -0.08   0.03
     4   1     0.57   0.00  -0.00    -0.00   0.37   0.10    -0.00   0.63   0.34
     5  17    -0.02  -0.00   0.00    -0.00   0.00   0.00     0.00   0.00  -0.00
     6  17    -0.02   0.00  -0.00     0.00   0.00   0.00    -0.00   0.00  -0.00
                     10                     11                     12
                      A                      A                      A
 Frequencies --   3204.4044              3404.7838              3405.4948
 Red. masses --      1.0078                 1.1239                 1.1238
 Frc consts  --      6.0972                 7.6761                 7.6791
 IR Inten    --      0.0022                 3.2296                 3.2309
  Atom  AN      X      Y      Z        X      Y      Z        X      Y      Z
     1   6    -0.00  -0.00  -0.00    -0.00   0.08  -0.07     0.00  -0.07  -0.08
     2   1     0.00  -0.33  -0.48    -0.00   0.07   0.09    -0.00   0.45   0.66
     3   1    -0.00   0.58  -0.04     0.00  -0.64   0.04    -0.00   0.50  -0.05
     4   1     0.00  -0.25   0.52     0.00  -0.32   0.68     0.00  -0.14   0.27
     5  17     0.00   0.00   0.00     0.00  -0.00   0.00     0.00   0.00   0.00
     6  17    -0.00   0.00   0.00    -0.00  -0.00   0.00    -0.00   0.00   0.00

 -------------------
 - Thermochemistry -
 -------------------
 Temperature   298.150 Kelvin.  Pressure   1.00000 Atm.
 Atom     1 has atomic number  6 and mass  12.00000
 Atom     2 has atomic number  1 and mass   1.00783
 Atom     3 has atomic number  1 and mass   1.00783
 Atom     4 has atomic number  1 and mass   1.00783
 Atom     5 has atomic number 17 and mass  34.96885
 Atom     6 has atomic number 17 and mass  34.96885
 Molecular mass:    84.96118 amu.
 Principal axes and moments of inertia in atomic units:
                           1         2         3
     Eigenvalues --    12.429061343.317331343.31743
           X            1.00000  -0.00000   0.00000
           Y            0.00000   1.00000  -0.00268
           Z           -0.00000   0.00268   1.00000
 This molecule is an asymmetric top.
 Rotational symmetry number  1.
 Rotational temperatures (Kelvin)      6.96866     0.06448     0.06448
 Rotational constants (GHZ):         145.20333     1.34350     1.34350
    1 imaginary frequencies ignored.
 Zero-point vibrational energy      98855.5 (Joules/Mol)
                                   23.62704 (Kcal/Mol)
 Warning -- explicit consideration of   3 degrees of freedom as
           vibrations may cause significant error
 Vibrational temperatures:    299.55   301.17   324.66  1418.86  1419.77
          (Kelvin)           1573.09  2015.89  2017.29  4610.42  4898.72
                             4899.75
 
 Zero-point correction=                           0.037652 (Hartree/Particle)
 Thermal correction to Energy=                    0.042219
 Thermal correction to Enthalpy=                  0.043163
 Thermal correction to Gibbs Free Energy=         0.009822
 Sum of electronic and zero-point Energies=           -960.319563
 Sum of electronic and thermal Energies=              -960.314997
 Sum of electronic and thermal Enthalpies=            -960.314052
 Sum of electronic and thermal Free Energies=         -960.347393
 
                     E (Thermal)             CV                S
                      KCal/Mol        Cal/Mol-Kelvin    Cal/Mol-Kelvin
 Total                   26.493             12.699             70.172
 Electronic               0.000              0.000              0.000
 Translational            0.889              2.981             39.232
 Rotational               0.889              2.981             24.620
 Vibrational             24.715              6.738              6.320
 Vibration     1          0.642              1.828              2.059
 Vibration     2          0.642              1.827              2.050
 Vibration     3          0.650              1.802              1.913
                       Q            Log10(Q)             Ln(Q)
 Total Bot       0.303650D-04         -4.517627        -10.402220
 Total V=0       0.632579D+13         12.801115         29.475657
 Vib (Bot)       0.184012D-16        -16.735155        -38.534118
 Vib (Bot)    1  0.954660D+00         -0.020151         -0.046400
 Vib (Bot)    2  0.949088D+00         -0.022694         -0.052254
 Vib (Bot)    3  0.874506D+00         -0.058237         -0.134096
 Vib (V=0)       0.383342D+01          0.583587          1.343759
 Vib (V=0)    1  0.157767D+01          0.198017          0.455950
 Vib (V=0)    2  0.157274D+01          0.196656          0.452818
 Vib (V=0)    3  0.150735D+01          0.178215          0.410355
 Electronic      0.100000D+01          0.000000          0.000000
 Translational   0.307811D+08          7.488285         17.242413
 Rotational      0.536097D+05          4.729243         10.889485
 ***** Axes restored to original set *****
 -------------------------------------------------------------------
 Center     Atomic                   Forces (Hartrees/Bohr)
 Number     Number              X              Y              Z
 -------------------------------------------------------------------
      1        6           0.000004393   -0.000005909    0.000001909
      2        1          -0.000005508   -0.000006265    0.000005653
      3        1           0.000008750   -0.000021290    0.000008023
      4        1          -0.000017759    0.000012388   -0.000000081
      5       17           0.000009299    0.000017175    0.000004526
      6       17           0.000000824    0.000003901   -0.000020032
 -------------------------------------------------------------------
 Cartesian Forces:  Max     0.000021290 RMS     0.000010650
 FormGI is forming the generalized inverse of G from B-inverse, IUseBI=4.

 GradGradGradGradGradGradGradGradGradGradGradGradGradGradGradGradGradGrad
 Berny optimization.
 Internal  Forces:  Max     0.000027717 RMS     0.000011782
 Search for a saddle point.
 Step number   1 out of a maximum of    2
 All quantities printed in internal units (Hartrees-Bohrs-Radians)
 Swapping is turned off.
 Second derivative matrix not updated -- analytic derivatives used.
 ITU=  0
     Eigenvalues ---   -0.02046   0.03052   0.03058   0.05572   0.05630
     Eigenvalues ---    0.05806   0.06737   0.07579   0.07591   0.39169
     Eigenvalues ---    0.39362   0.39379
 Eigenvectors required to have negative eigenvalues:
                          R5        R4        D1        A4        A3
   1                    0.56757  -0.56757   0.48698  -0.14084   0.14084
                          A6        A7        A9        A8        D2
   1                    0.14064  -0.14064  -0.14027   0.14026  -0.00005
 Angle between quadratic step and forces=  21.16 degrees.
 Linear search not attempted -- option 19 set.
 Iteration  1 RMS(Cart)=  0.00034484 RMS(Int)=  0.00000007
 Iteration  2 RMS(Cart)=  0.00000008 RMS(Int)=  0.00000001
 Variable       Old X    -DE/DX   Delta X   Delta X   Delta X     New X
                                 (Linear)    (Quad)   (Total)
    R1        2.02750   0.00000   0.00000   0.00003   0.00003   2.02753
    R2        2.02752  -0.00001   0.00000  -0.00005  -0.00005   2.02746
    R3        2.02755   0.00002   0.00000   0.00005   0.00005   2.02760
    R4        4.37247   0.00001   0.00000   0.00022   0.00022   4.37269
    R5        4.37247   0.00001   0.00000   0.00021   0.00021   4.37269
    A1        2.09443  -0.00000   0.00000  -0.00007  -0.00007   2.09436
    A2        2.09437   0.00000   0.00000   0.00000   0.00000   2.09438
    A3        1.57062   0.00001   0.00000   0.00019   0.00019   1.57080
    A4        1.57061   0.00001   0.00000   0.00019   0.00019   1.57080
    A5        2.09439   0.00000   0.00000   0.00006   0.00006   2.09445
    A6        1.57079  -0.00002   0.00000  -0.00031  -0.00031   1.57048
    A7        1.57080  -0.00002   0.00000  -0.00032  -0.00032   1.57048
    A8        1.57099   0.00001   0.00000   0.00012   0.00012   1.57110
    A9        1.57098   0.00001   0.00000   0.00013   0.00013   1.57110
   A10        3.14123   0.00002   0.00000   0.00038   0.00038   3.14161
   A11        3.14181   0.00003   0.00000   0.00050   0.00050   3.14231
    D1       -3.14159  -0.00000   0.00000  -0.00000  -0.00000  -3.14159
    D2        2.09443  -0.00000   0.00000  -0.00007  -0.00007   2.09436
    D3       -2.09443   0.00000   0.00000   0.00007   0.00007  -2.09436
    D4       -2.09437  -0.00000   0.00000  -0.00000  -0.00000  -2.09438
    D5        2.09437   0.00000   0.00000   0.00000   0.00000   2.09438
    D6        2.09439   0.00000   0.00000   0.00006   0.00006   2.09445
    D7       -2.09439  -0.00000   0.00000  -0.00006  -0.00006  -2.09445
         Item               Value     Threshold  Converged?
 Maximum Force            0.000028     0.000450     YES
 RMS     Force            0.000012     0.000300     YES
 Maximum Displacement     0.000806     0.001800     YES
 RMS     Displacement     0.000345     0.001200     YES
 Predicted change in Energy=-2.389855D-08
 Optimization completed.
    -- Stationary point found.
                           ----------------------------
                           !   Optimized Parameters   !
                           ! (Angstroms and Degrees)  !
 --------------------------                            --------------------------
 ! Name  Definition              Value          Derivative Info.                !
 --------------------------------------------------------------------------------
 ! R1    R(1,2)                  1.0729         -DE/DX =    0.0                 !
 ! R2    R(1,3)                  1.0729         -DE/DX =    0.0                 !
 ! R3    R(1,4)                  1.0729         -DE/DX =    0.0                 !
 ! R4    R(1,5)                  2.3138         -DE/DX =    0.0                 !
 ! R5    R(1,6)                  2.3138         -DE/DX =    0.0                 !
 ! A1    A(2,1,3)              120.0018         -DE/DX =    0.0                 !
 ! A2    A(2,1,4)              119.9988         -DE/DX =    0.0                 !
 ! A3    A(2,1,5)               89.9897         -DE/DX =    0.0                 !
 ! A4    A(2,1,6)               89.9893         -DE/DX =    0.0                 !
 ! A5    A(3,1,4)              119.9995         -DE/DX =    0.0                 !
 ! A6    A(3,1,5)               89.9995         -DE/DX =    0.0                 !
 ! A7    A(3,1,6)               90.0002         -DE/DX =    0.0                 !
 ! A8    A(4,1,5)               90.0109         -DE/DX =    0.0                 !
 ! A9    A(4,1,6)               90.0103         -DE/DX =    0.0                 !
 ! A10   L(5,1,6,2,-1)         179.9791         -DE/DX =    0.0                 !
 ! A11   L(5,1,6,2,-2)         180.0124         -DE/DX =    0.0                 !
 ! D1    D(2,1,4,3)           -179.9998         -DE/DX =    0.0                 !
 ! D2    D(2,1,5,3)            120.0018         -DE/DX =    0.0                 !
 ! D3    D(2,1,6,3)           -120.0018         -DE/DX =    0.0                 !
 ! D4    D(2,1,5,4)           -119.9988         -DE/DX =    0.0                 !
 ! D5    D(2,1,6,4)            119.9988         -DE/DX =    0.0                 !
 ! D6    D(3,1,5,4)            119.9995         -DE/DX =    0.0                 !
 ! D7    D(3,1,6,4)           -119.9995         -DE/DX =    0.0                 !
 --------------------------------------------------------------------------------
 GradGradGradGradGradGradGradGradGradGradGradGradGradGradGradGradGradGrad


 ----------------------------------------------------------------------

 Electric dipole moment (input orientation):
 (Debye = 10**-18 statcoulomb cm , SI units = C m)
                  (au)            (Debye)         (10**-30 SI)
   Tot        0.525765D-03      0.133636D-02      0.445762D-02
   x         -0.481922D-03     -0.122492D-02     -0.408590D-02
   y          0.196561D-03      0.499609D-03      0.166652D-02
   z          0.744559D-04      0.189248D-03      0.631263D-03

 Dipole polarizability, Alpha (input orientation).
 (esu units = cm**3 , SI units = C**2 m**2 J**-1)
 Alpha(0;0):
               (au)            (10**-24 esu)      (10**-40 SI)
   iso        0.632593D+02      0.937407D+01      0.104301D+02
   aniso      0.838772D+02      0.124293D+02      0.138295D+02
   xx         0.427794D+02      0.633926D+01      0.705338D+01
   yx         0.115761D+02      0.171540D+01      0.190864D+01
   yy         0.532336D+02      0.788841D+01      0.877704D+01
   zx         0.209183D+02      0.309978D+01      0.344897D+01
   zy         0.323771D+02      0.479779D+01      0.533826D+01
   zz         0.937650D+02      0.138945D+02      0.154598D+02

 ----------------------------------------------------------------------

 Dipole orientation:
     6         -0.72888974          0.28837405          1.34658596
     1         -0.44126166         -1.11907506         -0.08419442
     1         -1.07864359          2.21436485          0.81832708
     1         -0.66676662         -0.23019318          3.30571236
    17          3.56892113          1.08942218          1.42147221
    17         -5.02658942         -0.51312496          1.26990078

 Electric dipole moment (dipole orientation):
 (Debye = 10**-18 statcoulomb cm , SI units = C m)
                  (au)            (Debye)         (10**-30 SI)
   Tot        0.525765D-03      0.133636D-02      0.445762D-02
   x          0.000000D+00      0.000000D+00      0.000000D+00
   y          0.000000D+00      0.000000D+00      0.000000D+00
   z          0.525765D-03      0.133636D-02      0.445762D-02

 Dipole polarizability, Alpha (dipole orientation).
 (esu units = cm**3 , SI units = C**2 m**2 J**-1)
 Alpha(0;0):
               (au)            (10**-24 esu)      (10**-40 SI)
   iso        0.632593D+02      0.937407D+01      0.104301D+02
   aniso      0.838772D+02      0.124293D+02      0.138295D+02
   xx         0.116335D+03      0.172391D+02      0.191811D+02
   yx         0.151084D+02      0.223883D+01      0.249103D+01
   yy         0.381156D+02      0.564815D+01      0.628441D+01
   zx         0.142753D+01      0.211539D+00      0.235369D+00
   zy         0.273846D+00      0.405799D-01      0.451512D-01
   zz         0.353270D+02      0.523492D+01      0.582463D+01

 ----------------------------------------------------------------------
 Unable to Open any file for archive entry.
 1\1\GINC-MASTER\Freq\RM062X\6-311+G(d,p)\C1H3Cl2(1-)\HAHAHA\25-Dec-202
 5\0\\#N Geom=AllCheck Guess=TCheck SCRF=Check GenChk RM062X/6-311+G(d,
 p) Freq\\Title Card Required\\-1,1\C,-0.7091999575,0.2845419612,-0.309
 6868414\H,-0.198577082,-0.6064353065,0.0010512142\H,-0.1959044875,1.01
 88855257,-0.8999543662\H,-1.7331649986,0.4411806176,-0.0301470834\Cl,-
 0.0177604616,1.3540405827,1.6220997408\Cl,-1.3998229629,-0.7855042807,
 -2.2414651039\\Version=ES64L-G16RevC.01\State=1-A\HF=-960.3572151\RMSD
 =9.604e-10\RMSF=1.065e-05\ZeroPoint=0.0376521\Thermal=0.0422185\ETot=-
 960.3149966\HTot=-960.3140524\GTot=-960.3473934\Dipole=-0.0004819,0.00
 01966,0.0000745\DipoleDeriv=0.4289864,0.5448041,0.9827241,0.5451641,0.
 9209075,1.5209657,0.9825288,1.5210982,2.8258021,0.0394459,-0.0393342,-
 0.0817222,-0.0398335,-0.0059627,-0.1208374,-0.081447,-0.1210185,-0.153
 7544,0.0396844,-0.048913,-0.0759824,-0.048731,-0.0043957,-0.1177182,-0
 .0760858,-0.117656,-0.156083,0.0310445,-0.0421393,-0.0768767,-0.042140
 3,0.0021846,-0.1240847,-0.0768797,-0.1240864,-0.1528941,-0.7697,-0.207
 3135,-0.3742928,-0.2073122,-0.9563673,-0.5792155,-0.37413,-0.5790518,-
 1.6814138,-0.7694613,-0.2071041,-0.37385,-0.2071471,-0.9563663,-0.5791
 099,-0.3739863,-0.5792855,-1.6816567\Polar=42.7794463,11.5760849,53.23
 36103,20.9183305,32.3770889,93.7649666\Quadrupole=6.8557003,3.3578803,
 -10.2135806,-3.8775398,-7.0019264,-10.8396609\PG=C01 [X(C1H3Cl2)]\NIma
 g=1\\0.62277575,-0.10588590,0.52744320,-0.19119264,-0.29608832,0.15672
 442,-0.12598154,0.13764754,-0.03361138,0.12313780,0.13763013,-0.273353
 75,0.09834712,-0.13826154,0.28364074,-0.03360148,0.09834099,-0.0492921
 1,0.04657600,-0.08584870,0.07018198,-0.12674591,-0.10186828,0.09928247
 ,0.00993669,0.01002349,-0.00826760,0.12385685,-0.10180510,-0.20008522,
 0.14339799,-0.01241906,-0.00789132,0.01010921,0.11317502,0.20655373,0.
 09924754,0.14342055,-0.12182180,0.00416046,0.00208119,-0.00029907,-0.0
 9291512,-0.13309678,0.14625455,-0.35254042,0.05285548,0.09436376,-0.00
 501151,-0.00216204,0.00382953,-0.00504029,0.00438002,0.00021291,0.3610
 1830,0.05280718,-0.05206103,0.00611069,0.02026985,0.00197632,-0.007045
 40,-0.01800692,0.00681373,0.00396145,-0.04915173,0.05105564,0.09439051
 ,0.00609363,-0.04405403,-0.00859251,0.00097873,0.00487885,0.01261021,-
 0.00404667,0.00006573,-0.08788335,0.01104067,0.06456576,-0.00875033,0.
 00863143,0.01559995,-0.00010933,-0.00126344,-0.00105746,-0.00005817,-0
 .00016446,-0.00161532,-0.00107187,-0.00680725,-0.01219718,0.01065885,0
 .00862272,-0.00097777,0.02412143,-0.00616753,-0.00472397,-0.01396455,-
 0.00035094,-0.00060856,-0.00282473,-0.00171097,-0.00345966,-0.00623003
 ,0.00404978,0.01444606,0.01556813,0.02410172,0.02922417,-0.00429855,-0
 .00528606,-0.01112814,-0.00753423,-0.01145126,-0.01513240,-0.00301297,
 -0.00626564,-0.01130180,0.00729888,0.01132440,0.02857056,-0.00875756,0
 .00861972,0.01555784,-0.00197211,-0.00596659,-0.00747899,-0.00194916,-
 0.00316643,-0.00909046,0.00264580,0.00088887,0.00167232,-0.00066915,-0
 .00444305,-0.00802125,0.01070218,0.00863097,-0.00096543,0.02411108,-0.
 00106926,0.00035198,-0.00159156,-0.00297237,-0.00478234,-0.01354169,-0
 .00421076,-0.00432501,-0.00783634,-0.00444606,-0.00467609,-0.01242317,
 0.00406748,0.01439689,0.01558794,0.02413142,0.02921935,-0.00423401,-0.
 01027229,-0.01434151,-0.00317573,-0.00491250,-0.00906701,-0.00750989,-
 0.00780178,-0.01415450,-0.00802886,-0.01242652,-0.02023239,0.00736054,
 0.01128167,0.02857606\\-0.00000439,0.00000591,-0.00000191,0.00000551,0
 .00000626,-0.00000565,-0.00000875,0.00002129,-0.00000802,0.00001776,-0
 .00001239,0.00000008,-0.00000930,-0.00001718,-0.00000453,-0.00000082,-
 0.00000390,0.00002003\\\@
 The archive entry for this job was punched.


 When I told the people of Northern Ireland that I was
 an atheist, a woman in the audience stood up and said,
 "Yes, but is it the God of the Catholics or the God
 of the Protestants in whom you don't believe?"
                               -- Quentin Crisp
 Job cpu time:       0 days  0 hours  0 minutes 46.8 seconds.
 Elapsed time:       0 days  0 hours  0 minutes  3.0 seconds.
 File lengths (MBytes):  RWF=     13 Int=      0 D2E=      0 Chk=      2 Scr=      1
 Normal termination of Gaussian 16 at Thu Dec 25 18:29:19 2025.
