 Entering Gaussian System, Link 0=g16
 Initial command:
 /opt/software/gaussian/g16/l1.exe "/tmp/Gau-2992965.inp" -scrdir="/tmp/"
 Entering Link 1 = /opt/software/gaussian/g16/l1.exe PID=   2992967.
  
 Copyright (c) 1988-2019, Gaussian, Inc.  All Rights Reserved.
  
 This is part of the Gaussian(R) 16 program.  It is based on
 the Gaussian(R) 09 system (copyright 2009, Gaussian, Inc.),
 the Gaussian(R) 03 system (copyright 2003, Gaussian, Inc.),
 the Gaussian(R) 98 system (copyright 1998, Gaussian, Inc.),
 the Gaussian(R) 94 system (copyright 1995, Gaussian, Inc.),
 the Gaussian 92(TM) system (copyright 1992, Gaussian, Inc.),
 the Gaussian 90(TM) system (copyright 1990, Gaussian, Inc.),
 the Gaussian 88(TM) system (copyright 1988, Gaussian, Inc.),
 the Gaussian 86(TM) system (copyright 1986, Carnegie Mellon
 University), and the Gaussian 82(TM) system (copyright 1983,
 Carnegie Mellon University). Gaussian is a federally registered
 trademark of Gaussian, Inc.
  
 This software contains proprietary and confidential information,
 including trade secrets, belonging to Gaussian, Inc.
  
 This software is provided under written license and may be
 used, copied, transmitted, or stored only in accord with that
 written license.
  
 The following legend is applicable only to US Government
 contracts under FAR:
  
                    RESTRICTED RIGHTS LEGEND
  
 Use, reproduction and disclosure by the US Government is
 subject to restrictions as set forth in subparagraphs (a)
 and (c) of the Commercial Computer Software - Restricted
 Rights clause in FAR 52.227-19.
  
 Gaussian, Inc.
 340 Quinnipiac St., Bldg. 40, Wallingford CT 06492
  
  
 ---------------------------------------------------------------
 Warning -- This program may not be used in any manner that
 competes with the business of Gaussian, Inc. or will provide
 assistance to any competitor of Gaussian, Inc.  The licensee
 of this program is prohibited from giving any competitor of
 Gaussian, Inc. access to this program.  By using this program,
 the user acknowledges that Gaussian, Inc. is engaged in the
 business of creating and licensing software in the field of
 computational chemistry and represents and warrants to the
 licensee that it is not a competitor of Gaussian, Inc. and that
 it will not use this program in any manner prohibited above.
 ---------------------------------------------------------------
  

 Cite this work as:
 Gaussian 16, Revision C.01,
 M. J. Frisch, G. W. Trucks, H. B. Schlegel, G. E. Scuseria, 
 M. A. Robb, J. R. Cheeseman, G. Scalmani, V. Barone, 
 G. A. Petersson, H. Nakatsuji, X. Li, M. Caricato, A. V. Marenich, 
 J. Bloino, B. G. Janesko, R. Gomperts, B. Mennucci, H. P. Hratchian, 
 J. V. Ortiz, A. F. Izmaylov, J. L. Sonnenberg, D. Williams-Young, 
 F. Ding, F. Lipparini, F. Egidi, J. Goings, B. Peng, A. Petrone, 
 T. Henderson, D. Ranasinghe, V. G. Zakrzewski, J. Gao, N. Rega, 
 G. Zheng, W. Liang, M. Hada, M. Ehara, K. Toyota, R. Fukuda, 
 J. Hasegawa, M. Ishida, T. Nakajima, Y. Honda, O. Kitao, H. Nakai, 
 T. Vreven, K. Throssell, J. A. Montgomery, Jr., J. E. Peralta, 
 F. Ogliaro, M. J. Bearpark, J. J. Heyd, E. N. Brothers, K. N. Kudin, 
 V. N. Staroverov, T. A. Keith, R. Kobayashi, J. Normand, 
 K. Raghavachari, A. P. Rendell, J. C. Burant, S. S. Iyengar, 
 J. Tomasi, M. Cossi, J. M. Millam, M. Klene, C. Adamo, R. Cammi, 
 J. W. Ochterski, R. L. Martin, K. Morokuma, O. Farkas, 
 J. B. Foresman, and D. J. Fox, Gaussian, Inc., Wallingford CT, 2019.
 
 ******************************************
 Gaussian 16:  ES64L-G16RevC.01  3-Jul-2019
                25-Dec-2025 
 ******************************************
 %nprocshared=16
 Will use up to   16 processors via shared memory.
 %mem=50GB
 %chk=CH3Cl-Cl-irc.chk
 --------------------------------------------------------------------
 # irc=(calcfc,maxpoints=200,stepsiz=5,lqa) 6-311+g(d,p) em=gd3 m062x
 --------------------------------------------------------------------
 1/10=4,18=10,26=3,38=1,39=5,42=200,44=3,45=2,172=1/1,23;
 2/12=2,17=6,18=5,29=1,40=1/2;
 3/5=4,6=6,7=111,11=2,25=1,30=1,71=2,74=-55,124=31,140=1/1,2,3;
 4//1;
 5/5=2,38=5/2;
 8/6=4,10=90,11=11/1;
 11/6=1,8=1,9=11,15=111,16=1/1,2,10;
 10/6=1,13=1/2;
 6/7=2,8=2,9=2,10=2,28=1/1;
 7/10=1,25=1/1,2,3,16;
 1/10=4,18=10,26=3,39=5,42=200,44=3,45=2/23(2);
 2/29=1/2;
 99/5=20/99;
 2/29=1/2;
 3/5=4,6=6,7=111,11=2,25=1,30=1,71=2,74=-55,124=31,140=1/1,2,3;
 4/5=5,16=3,69=1/1;
 5/5=2,38=5/2;
 8/6=4,10=90,11=11/1;
 11/6=1,8=1,9=11,15=111,16=1/1,2,10;
 10/6=1,13=1/2;
 7/10=1,25=1/1,2,3,16;
 1/18=10,26=3,39=5,42=200,44=3,45=2/23(-8);
 2/29=1/2;
 6/7=2,8=2,9=2,10=2,19=2,28=1/1;
 99/5=20,9=1/99;
 -------------------
 Title Card Required
 -------------------
 Symbolic Z-matrix:
 Charge = -1 Multiplicity = 1
 C                     0.       -0.00003  -0.00039 
 H                    0.         0.60632   0.88476 
 H                     0.00001  -1.06977   0.08212 
 H                    -0.00001   0.46339  -0.96808 
 Cl                    2.31381   0.00001   0.0001 
 Cl                   -2.31381   0.00001   0.0001 
 
 IRC-IRC-IRC-IRC-IRC-IRC-IRC-IRC-IRC-IRC-IRC-IRC-IRC-IRC-IRC-IRC-IRC-IRC
 ------------------------------------------------------------------------
 INPUT DATA FOR L123
 ------------------------------------------------------------------------
 GENERAL PARAMETERS:
 Follow reaction path in both directions.
 Maximum points per path      = 200
 Step size                    =   0.050 bohr
 Integration scheme           = LQA                                 
 Initial Hessian              = CalcFC
 Hessian evaluation           = All updating
 Hessian updating method      = Bofill                              
 ------------------------------------------------------------------------
 IRC-IRC-IRC-IRC-IRC-IRC-IRC-IRC-IRC-IRC-IRC-IRC-IRC-IRC-IRC-IRC-IRC-IRC
                          Input orientation:                          
 ---------------------------------------------------------------------
 Center     Atomic      Atomic             Coordinates (Angstroms)
 Number     Number       Type             X           Y           Z
 ---------------------------------------------------------------------
      1          6           0        0.000001   -0.000026   -0.000387
      2          1           0       -0.000003    0.606318    0.884758
      3          1           0        0.000008   -1.069765    0.082117
      4          1           0       -0.000005    0.463391   -0.968079
      5         17           0        2.313811    0.000006    0.000104
      6         17           0       -2.313811    0.000006    0.000104
 ---------------------------------------------------------------------
                    Distance matrix (angstroms):
                    1          2          3          4          5
     1  C    0.000000
     2  H    1.072909   0.000000
     3  H    1.072916   1.858356   0.000000
     4  H    1.072932   1.858341   1.858354   0.000000
     5  Cl   2.313810   2.550287   2.550455   2.550656   0.000000
     6  Cl   2.313812   2.550281   2.550469   2.550647   4.627622
                    6
     6  Cl   0.000000
 Symmetry turned off by external request.
 This structure is nearly, but not quite of a higher symmetry.
 Consider Symm=Loose if the higher symmetry is desired.
 Stoichiometry    CH3Cl2(1-)
 Framework group  C1[X(CH3Cl2)]
 Deg. of freedom    12
 Full point group                 C1      NOp   1
 Rotational constants (GHZ):         145.2032908           1.3434956           1.3434955
 Standard basis: 6-311+G(d,p) (5D, 7F)
   100 basis functions,   166 primitive gaussians,   103 cartesian basis functions
    22 alpha electrons       22 beta electrons
       nuclear repulsion energy       110.5985660975 Hartrees.
 NAtoms=    6 NActive=    6 NUniq=    6 SFac= 1.00D+00 NAtFMM=   60 NAOKFM=F Big=F
 Integral buffers will be    131072 words long.
 Raffenetti 2 integral format.
 Two-electron integral symmetry is turned off.
 Nuclear repulsion after empirical dispersion term =      110.5985533467 Hartrees.
 One-electron integrals computed using PRISM.
 NBasis=   100 RedAO= T EigKep=  6.33D-04  NBF=   100
 NBsUse=   100 1.00D-06 EigRej= -1.00D+00 NBFU=   100
 ExpMin= 4.38D-02 ExpMax= 1.06D+05 ExpMxC= 3.62D+03 IAcc=3 IRadAn=         5 AccDes= 0.00D+00
 Harris functional with IExCor= 1009 and IRadAn=       5 diagonalized for initial guess.
 HarFok:  IExCor= 1009 AccDes= 0.00D+00 IRadAn=         5 IDoV= 1 UseB2=F ITyADJ=14
 ICtDFT=  3500011 ScaDFX=  1.000000  1.000000  1.000000  1.000000
 FoFCou: FMM=F IPFlag=           0 FMFlag=      100000 FMFlg1=           0
         NFxFlg=           0 DoJE=T BraDBF=F KetDBF=T FulRan=T
         wScrn=  0.000000 ICntrl=       500 IOpCl=  0 I1Cent=   200000004 NGrid=           0
         NMat0=    1 NMatS0=      1 NMatT0=    0 NMatD0=    1 NMtDS0=    0 NMtDT0=    0
 Symmetry not used in FoFCou.
 Keep R1 ints in memory in canonical form, NReq=27595042.
 Requested convergence on RMS density matrix=1.00D-08 within 128 cycles.
 Requested convergence on MAX density matrix=1.00D-06.
 Requested convergence on             energy=1.00D-06.
 No special actions if energy rises.
 SCF Done:  E(RM062X) =  -960.357215068     A.U. after   11 cycles
            NFock= 11  Conv=0.13D-08     -V/T= 2.0022
 DoSCS=F DFT=T ScalE2(SS,OS)=  1.000000  1.000000
 Range of M.O.s used for correlation:     1   100
 NBasis=   100 NAE=    22 NBE=    22 NFC=     0 NFV=     0
 NROrb=    100 NOA=    22 NOB=    22 NVA=    78 NVB=    78

 **** Warning!!: The largest alpha MO coefficient is  0.19856187D+02

 Symmetrizing basis deriv contribution to polar:
 IMax=3 JMax=2 DiffMx= 0.00D+00
 G2DrvN: will do     7 centers at a time, making    1 passes.
 Calling FoFCou, ICntrl=  3107 FMM=F I1Cent=   0 AccDes= 0.00D+00.
 End of G2Drv F.D. properties file   721 does not exist.
 End of G2Drv F.D. properties file   722 does not exist.
 End of G2Drv F.D. properties file   788 does not exist.
          IDoAtm=111111
          Differentiating once with respect to nuclear coordinates.
 Keep R1 ints in memory in canonical form, NReq=27544650.
          There are    21 degrees of freedom in the 1st order CPHF.  IDoFFX=6 NUNeed=     0.
     15 vectors produced by pass  0 Test12= 8.17D-15 4.76D-09 XBig12= 1.01D-01 1.97D-01.
 AX will form    15 AO Fock derivatives at one time.
     15 vectors produced by pass  1 Test12= 8.17D-15 4.76D-09 XBig12= 4.49D-03 2.14D-02.
     15 vectors produced by pass  2 Test12= 8.17D-15 4.76D-09 XBig12= 6.05D-04 6.87D-03.
     15 vectors produced by pass  3 Test12= 8.17D-15 4.76D-09 XBig12= 4.18D-05 2.52D-03.
     15 vectors produced by pass  4 Test12= 8.17D-15 4.76D-09 XBig12= 3.82D-07 2.12D-04.
     15 vectors produced by pass  5 Test12= 8.17D-15 4.76D-09 XBig12= 3.81D-09 1.92D-05.
     11 vectors produced by pass  6 Test12= 8.17D-15 4.76D-09 XBig12= 2.10D-11 8.88D-07.
      2 vectors produced by pass  7 Test12= 8.17D-15 4.76D-09 XBig12= 6.51D-14 6.93D-08.
 InvSVY:  IOpt=1 It=  1 EMax= 1.22D-15
 Solved reduced A of dimension   103 with    15 vectors.
 End of Minotr F.D. properties file   721 does not exist.
 End of Minotr F.D. properties file   722 does not exist.
 End of Minotr F.D. properties file   788 does not exist.

 **********************************************************************

            Population analysis using the SCF Density.

 **********************************************************************

 Alpha  occ. eigenvalues -- -102.43608-102.43608 -10.45950  -9.57752  -9.57751
 Alpha  occ. eigenvalues --   -7.30018  -7.30018  -7.29743  -7.29743  -7.29743
 Alpha  occ. eigenvalues --   -7.29743  -0.70584  -0.66871  -0.60736  -0.36901
 Alpha  occ. eigenvalues --   -0.36900  -0.24013  -0.17143  -0.17143  -0.16238
 Alpha  occ. eigenvalues --   -0.16237  -0.14009
 Alpha virt. eigenvalues --    0.14853   0.15489   0.18711   0.18712   0.19730
 Alpha virt. eigenvalues --    0.20286   0.22721   0.22721   0.25034   0.25035
 Alpha virt. eigenvalues --    0.27457   0.32176   0.32177   0.33941   0.36326
 Alpha virt. eigenvalues --    0.40240   0.56657   0.56657   0.62145   0.63630
 Alpha virt. eigenvalues --    0.65150   0.65152   0.68671   0.68672   0.75247
 Alpha virt. eigenvalues --    0.78907   0.78909   0.85992   0.98341   1.13209
 Alpha virt. eigenvalues --    1.13209   1.16630   1.16631   1.17333   1.17334
 Alpha virt. eigenvalues --    1.17783   1.18295   1.18295   1.20791   1.30917
 Alpha virt. eigenvalues --    1.30920   1.35381   1.40625   1.58605   1.67590
 Alpha virt. eigenvalues --    1.67591   1.71839   2.06404   2.09581   2.09583
 Alpha virt. eigenvalues --    2.11744   2.11748   2.50001   2.50003   2.51103
 Alpha virt. eigenvalues --    2.51106   2.51108   2.61630   2.63902   2.63903
 Alpha virt. eigenvalues --    2.76999   2.82144   2.82146   3.07698   3.18916
 Alpha virt. eigenvalues --    3.91094   3.91096  10.04869  10.11744  24.11980
 Alpha virt. eigenvalues --   26.11749  26.11750  26.12626  26.12627  26.39107
 Alpha virt. eigenvalues --   26.41560 216.13048 216.21437
          Condensed to atoms (all electrons):
               1          2          3          4          5          6
     1  C    5.170210   0.412757   0.412745   0.412694   0.106314   0.106314
     2  H    0.412757   0.504700  -0.017482  -0.017498  -0.056535  -0.056536
     3  H    0.412745  -0.017482   0.504690  -0.017504  -0.056514  -0.056513
     4  H    0.412694  -0.017498  -0.017504   0.504706  -0.056471  -0.056472
     5  Cl   0.106314  -0.056535  -0.056514  -0.056471  17.567573   0.030974
     6  Cl   0.106314  -0.056536  -0.056513  -0.056472   0.030974  17.567576
 Mulliken charges:
               1
     1  C   -0.621033
     2  H    0.230594
     3  H    0.230578
     4  H    0.230545
     5  Cl  -0.535341
     6  Cl  -0.535343
 Sum of Mulliken charges =  -1.00000
 Mulliken charges with hydrogens summed into heavy atoms:
               1
     1  C    0.070684
     5  Cl  -0.535341
     6  Cl  -0.535343
 APT charges:
               1
     1  C   -1.020644
     2  H    0.419405
     3  H    0.419429
     4  H    0.419441
     5  Cl  -0.618814
     6  Cl  -0.618817
 Sum of APT charges =  -1.00000
 APT charges with hydrogens summed into heavy atoms:
               1
     1  C    0.237631
     5  Cl  -0.618814
     6  Cl  -0.618817
 Electronic spatial extent (au):  <R**2>=            773.4907
 Charge=             -1.0000 electrons
 Dipole moment (field-independent basis, Debye):
    X=              0.0000    Y=              0.0002    Z=             -0.0013  Tot=              0.0013
 Quadrupole moment (field-independent basis, Debye-Ang):
   XX=            -75.0048   YY=            -37.2342   ZZ=            -37.2342
   XY=             -0.0000   XZ=              0.0000   YZ=              0.0001
 Traceless Quadrupole moment (field-independent basis, Debye-Ang):
   XX=            -25.1804   YY=             12.5902   ZZ=             12.5902
   XY=             -0.0000   XZ=              0.0000   YZ=              0.0001
 Octapole moment (field-independent basis, Debye-Ang**2):
  XXX=              0.0002  YYY=             -1.1709  ZZZ=             -0.2784  XYY=              0.0000
  XXY=              0.0020  XXZ=             -0.0024  XZZ=              0.0000  YZZ=              1.1724
  YYZ=              0.2747  XYZ=             -0.0000
 Hexadecapole moment (field-independent basis, Debye-Ang**3):
 XXXX=          -1216.2882 YYYY=            -56.4911 ZZZZ=            -56.4911 XXXY=             -0.0000
 XXXZ=              0.0000 YYYX=             -0.0000 YYYZ=              0.0008 ZZZX=              0.0000
 ZZZY=             -0.0009 XXYY=           -187.1914 XXZZ=           -187.1912 YYZZ=            -18.8307
 XXYZ=              0.0003 YYXZ=              0.0000 ZZXY=             -0.0000
 N-N= 1.105985533467D+02 E-N=-2.511821899409D+03  KE= 9.582031919317D+02
  Exact polarizability:       0.000       0.000       0.000       0.000       0.000       0.000
 Approx polarizability:     115.010      -0.000      36.620       0.000      -0.001      36.620
 Calling FoFJK, ICntrl=    100127 FMM=F ISym2X=0 I1Cent= 0 IOpClX= 0 NMat=1 NMatS=1 NMatT=0.
 -------------------------------------------------------------------
 Center     Atomic                   Forces (Hartrees/Bohr)
 Number     Number              X              Y              Z
 -------------------------------------------------------------------
      1        6           0.000000137    0.000003715    0.000006698
      2        1           0.000000223    0.000009843   -0.000001781
      3        1          -0.000000545    0.000016245    0.000018158
      4        1           0.000000363   -0.000001802   -0.000021425
      5       17           0.000014479   -0.000013809   -0.000000868
      6       17          -0.000014657   -0.000014192   -0.000000782
 -------------------------------------------------------------------
 Cartesian Forces:  Max     0.000021425 RMS     0.000010628
 IRC-IRC-IRC-IRC-IRC-IRC-IRC-IRC-IRC-IRC-IRC-IRC-IRC-IRC-IRC-IRC-IRC-IRC
          ******** Start new reaction path calculation ********
 Supplied step size of   0.0500 bohr.
    Integration on MW PES will use step size of   0.1822 sqrt(amu)*bohr.
 Point Number:   0          Path Number:   1
 Calculating another point on the path.
 IRC-IRC-IRC-IRC-IRC-IRC-IRC-IRC-IRC-IRC-IRC-IRC-IRC-IRC-IRC-IRC-IRC-IRC
                          Input orientation:                          
 ---------------------------------------------------------------------
 Center     Atomic      Atomic             Coordinates (Angstroms)
 Number     Number       Type             X           Y           Z
 ---------------------------------------------------------------------
      1          6           0       -0.025705   -0.000027   -0.000404
      2          1           0       -0.000231    0.606318    0.884741
      3          1           0       -0.000250   -1.069765    0.082100
      4          1           0       -0.000281    0.463391   -0.968096
      5         17           0        2.318232    0.000005    0.000089
      6         17           0       -2.309390    0.000005    0.000086
 ---------------------------------------------------------------------
                    Distance matrix (angstroms):
                    1          2          3          4          5
     1  C    0.000000
     2  H    1.073212   0.000000
     3  H    1.073218   1.858356   0.000000
     4  H    1.073233   1.858342   1.858354   0.000000
     5  Cl   2.343937   2.554506   2.554701   2.554919   0.000000
     6  Cl   2.283685   2.546064   2.546225   2.546387   4.627622
                    6
     6  Cl   0.000000
 Symmetry turned off by external request.
 Stoichiometry    CH3Cl2(1-)
 Framework group  C1[X(CH3Cl2)]
 Deg. of freedom    12
 Full point group                 C1      NOp   1
 Rotational constants (GHZ):         145.2032853           1.3434624           1.3434623
 Standard basis: 6-311+G(d,p) (5D, 7F)
   100 basis functions,   166 primitive gaussians,   103 cartesian basis functions
    22 alpha electrons       22 beta electrons
       nuclear repulsion energy       110.6040320925 Hartrees.
 NAtoms=    6 NActive=    6 NUniq=    6 SFac= 1.00D+00 NAtFMM=   60 NAOKFM=F Big=F
 Integral buffers will be    131072 words long.
 Raffenetti 2 integral format.
 Two-electron integral symmetry is turned off.
 Nuclear repulsion after empirical dispersion term =      110.6040193405 Hartrees.
 One-electron integrals computed using PRISM.
 NBasis=   100 RedAO= T EigKep=  6.31D-04  NBF=   100
 NBsUse=   100 1.00D-06 EigRej= -1.00D+00 NBFU=   100
 Initial guess from the checkpoint file:  "CH3Cl-Cl-irc.chk"
 B after Tr=    -0.000205   -0.000001   -0.000032
         Rot=    1.000000    0.000000   -0.000000    0.000000 Ang=  -0.00 deg.
 ExpMin= 4.38D-02 ExpMax= 1.06D+05 ExpMxC= 3.62D+03 IAcc=3 IRadAn=         5 AccDes= 0.00D+00
 Harris functional with IExCor= 1009 and IRadAn=       5 diagonalized for initial guess.
 HarFok:  IExCor= 1009 AccDes= 0.00D+00 IRadAn=         5 IDoV= 1 UseB2=F ITyADJ=14
 ICtDFT=  3500011 ScaDFX=  1.000000  1.000000  1.000000  1.000000
 FoFCou: FMM=F IPFlag=           0 FMFlag=      100000 FMFlg1=           0
         NFxFlg=           0 DoJE=T BraDBF=F KetDBF=T FulRan=T
         wScrn=  0.000000 ICntrl=       500 IOpCl=  0 I1Cent=   200000004 NGrid=           0
         NMat0=    1 NMatS0=      1 NMatT0=    0 NMatD0=    1 NMtDS0=    0 NMtDT0=    0
 Symmetry not used in FoFCou.
 Keep R1 ints in memory in canonical form, NReq=27595042.
 Requested convergence on RMS density matrix=1.00D-08 within 128 cycles.
 Requested convergence on MAX density matrix=1.00D-06.
 Requested convergence on             energy=1.00D-06.
 No special actions if energy rises.
 SCF Done:  E(RM062X) =  -960.357340089     A.U. after   10 cycles
            NFock= 10  Conv=0.23D-08     -V/T= 2.0022
 DoSCS=F DFT=T ScalE2(SS,OS)=  1.000000  1.000000
 Range of M.O.s used for correlation:     1   100
 NBasis=   100 NAE=    22 NBE=    22 NFC=     0 NFV=     0
 NROrb=    100 NOA=    22 NOB=    22 NVA=    78 NVB=    78

 **** Warning!!: The largest alpha MO coefficient is  0.19848942D+02

 Symmetrizing basis deriv contribution to polar:
 IMax=3 JMax=2 DiffMx= 0.00D+00
 Calling FoFJK, ICntrl=      2127 FMM=F ISym2X=0 I1Cent= 0 IOpClX= 0 NMat=1 NMatS=1 NMatT=0.
 -------------------------------------------------------------------
 Center     Atomic                   Forces (Hartrees/Bohr)
 Number     Number              X              Y              Z
 -------------------------------------------------------------------
      1        6          -0.004375230    0.000004439    0.000007594
      2        1          -0.000021290   -0.000105643   -0.000167884
      3        1          -0.000019705    0.000216733    0.000002207
      4        1          -0.000020483   -0.000087666    0.000159553
      5       17           0.002260544   -0.000013549    0.000000362
      6       17           0.002176164   -0.000014313   -0.000001833
 -------------------------------------------------------------------
 Cartesian Forces:  Max     0.004375230 RMS     0.001271692
 IRC-IRC-IRC-IRC-IRC-IRC-IRC-IRC-IRC-IRC-IRC-IRC-IRC-IRC-IRC-IRC-IRC-IRC
 Pt  1 Step number   1 out of a maximum of  20
 Point Number:   1          Path Number:   1
   CHANGE IN THE REACTION COORDINATE =    0.18221
   NET REACTION COORDINATE UP TO THIS POINT =    0.18221
  # OF POINTS ALONG THE PATH =   1
  # OF STEPS =   1

 Calculating another point on the path.
 IRC-IRC-IRC-IRC-IRC-IRC-IRC-IRC-IRC-IRC-IRC-IRC-IRC-IRC-IRC-IRC-IRC-IRC
                          Input orientation:                          
 ---------------------------------------------------------------------
 Center     Atomic      Atomic             Coordinates (Angstroms)
 Number     Number       Type             X           Y           Z
 ---------------------------------------------------------------------
      1          6           0       -0.051377    0.000058   -0.000403
      2          1           0       -0.000820    0.606557    0.883998
      3          1           0       -0.000813   -1.069085    0.082699
      4          1           0       -0.000884    0.462730   -0.967894
      5         17           0        2.322727   -0.000012    0.000090
      6         17           0       -2.305024   -0.000014    0.000083
 ---------------------------------------------------------------------
                    Distance matrix (angstroms):
                    1          2          3          4          5
     1  C    0.000000
     2  H    1.073574   0.000000
     3  H    1.073559   1.857379   0.000000
     4  H    1.073616   1.857468   1.857471   0.000000
     5  Cl   2.374104   2.558923   2.559019   2.559353   0.000000
     6  Cl   2.253646   2.541376   2.541481   2.541687   4.627751
                    6
     6  Cl   0.000000
 Symmetry turned off by external request.
 Stoichiometry    CH3Cl2(1-)
 Framework group  C1[X(CH3Cl2)]
 Deg. of freedom    12
 Full point group                 C1      NOp   1
 Rotational constants (GHZ):         145.3457800           1.3432950           1.3432942
 Standard basis: 6-311+G(d,p) (5D, 7F)
   100 basis functions,   166 primitive gaussians,   103 cartesian basis functions
    22 alpha electrons       22 beta electrons
       nuclear repulsion energy       110.6244838500 Hartrees.
 NAtoms=    6 NActive=    6 NUniq=    6 SFac= 1.00D+00 NAtFMM=   60 NAOKFM=F Big=F
 Integral buffers will be    131072 words long.
 Raffenetti 2 integral format.
 Two-electron integral symmetry is turned off.
 Nuclear repulsion after empirical dispersion term =      110.6244710942 Hartrees.
 One-electron integrals computed using PRISM.
 NBasis=   100 RedAO= T EigKep=  6.28D-04  NBF=   100
 NBsUse=   100 1.00D-06 EigRej= -1.00D+00 NBFU=   100
 Initial guess from the checkpoint file:  "CH3Cl-Cl-irc.chk"
 B after Tr=    -0.000227    0.000006    0.000001
         Rot=    1.000000    0.000276    0.000000   -0.000000 Ang=   0.03 deg.
 ExpMin= 4.38D-02 ExpMax= 1.06D+05 ExpMxC= 3.62D+03 IAcc=3 IRadAn=         5 AccDes= 0.00D+00
 Harris functional with IExCor= 1009 and IRadAn=       5 diagonalized for initial guess.
 HarFok:  IExCor= 1009 AccDes= 0.00D+00 IRadAn=         5 IDoV= 1 UseB2=F ITyADJ=14
 ICtDFT=  3500011 ScaDFX=  1.000000  1.000000  1.000000  1.000000
 FoFCou: FMM=F IPFlag=           0 FMFlag=      100000 FMFlg1=           0
         NFxFlg=           0 DoJE=T BraDBF=F KetDBF=T FulRan=T
         wScrn=  0.000000 ICntrl=       500 IOpCl=  0 I1Cent=   200000004 NGrid=           0
         NMat0=    1 NMatS0=      1 NMatT0=    0 NMatD0=    1 NMtDS0=    0 NMtDT0=    0
 Symmetry not used in FoFCou.
 Keep R1 ints in memory in canonical form, NReq=27595042.
 Requested convergence on RMS density matrix=1.00D-08 within 128 cycles.
 Requested convergence on MAX density matrix=1.00D-06.
 Requested convergence on             energy=1.00D-06.
 No special actions if energy rises.
 SCF Done:  E(RM062X) =  -960.357714756     A.U. after   10 cycles
            NFock= 10  Conv=0.27D-08     -V/T= 2.0022
 DoSCS=F DFT=T ScalE2(SS,OS)=  1.000000  1.000000
 Range of M.O.s used for correlation:     1   100
 NBasis=   100 NAE=    22 NBE=    22 NFC=     0 NFV=     0
 NROrb=    100 NOA=    22 NOB=    22 NVA=    78 NVB=    78

 **** Warning!!: The largest alpha MO coefficient is  0.19825346D+02

 Symmetrizing basis deriv contribution to polar:
 IMax=3 JMax=2 DiffMx= 0.00D+00
 Calling FoFJK, ICntrl=      2127 FMM=F ISym2X=0 I1Cent= 0 IOpClX= 0 NMat=1 NMatS=1 NMatT=0.
 -------------------------------------------------------------------
 Center     Atomic                   Forces (Hartrees/Bohr)
 Number     Number              X              Y              Z
 -------------------------------------------------------------------
      1        6          -0.008737270    0.000018931    0.000001505
      2        1          -0.000028795   -0.000217827   -0.000337174
      3        1          -0.000028920    0.000403694   -0.000020157
      4        1          -0.000031032   -0.000180643    0.000356622
      5       17           0.004498815   -0.000011466    0.000002180
      6       17           0.004327202   -0.000012689   -0.000002975
 -------------------------------------------------------------------
 Cartesian Forces:  Max     0.008737270 RMS     0.002536309
 IRC-IRC-IRC-IRC-IRC-IRC-IRC-IRC-IRC-IRC-IRC-IRC-IRC-IRC-IRC-IRC-IRC-IRC
 Pt  2 Step number   1 out of a maximum of  20
 Point Number:   2          Path Number:   1
   CHANGE IN THE REACTION COORDINATE =    0.18209
   NET REACTION COORDINATE UP TO THIS POINT =    0.36430
  # OF POINTS ALONG THE PATH =   2
  # OF STEPS =   1

 Calculating another point on the path.
 IRC-IRC-IRC-IRC-IRC-IRC-IRC-IRC-IRC-IRC-IRC-IRC-IRC-IRC-IRC-IRC-IRC-IRC
                          Input orientation:                          
 ---------------------------------------------------------------------
 Center     Atomic      Atomic             Coordinates (Angstroms)
 Number     Number       Type             X           Y           Z
 ---------------------------------------------------------------------
      1          6           0       -0.077035    0.000104   -0.000403
      2          1           0       -0.001527    0.606106    0.882768
      3          1           0       -0.001522   -1.067723    0.082901
      4          1           0       -0.001651    0.461951   -0.966857
      5         17           0        2.327241   -0.000021    0.000092
      6         17           0       -2.300670   -0.000024    0.000081
 ---------------------------------------------------------------------
                    Distance matrix (angstroms):
                    1          2          3          4          5
     1  C    0.000000
     2  H    1.073746   0.000000
     3  H    1.073730   1.855125   0.000000
     4  H    1.073787   1.855234   1.855234   0.000000
     5  Cl   2.404276   2.563136   2.563197   2.563619   0.000000
     6  Cl   2.223634   2.536255   2.536320   2.536509   4.627911
                    6
     6  Cl   0.000000
 Symmetry turned off by external request.
 Stoichiometry    CH3Cl2(1-)
 Framework group  C1[X(CH3Cl2)]
 Deg. of freedom    12
 Full point group                 C1      NOp   1
 Rotational constants (GHZ):         145.6972205           1.3430520           1.3430510
 Standard basis: 6-311+G(d,p) (5D, 7F)
   100 basis functions,   166 primitive gaussians,   103 cartesian basis functions
    22 alpha electrons       22 beta electrons
       nuclear repulsion energy       110.6651201375 Hartrees.
 NAtoms=    6 NActive=    6 NUniq=    6 SFac= 1.00D+00 NAtFMM=   60 NAOKFM=F Big=F
 Integral buffers will be    131072 words long.
 Raffenetti 2 integral format.
 Two-electron integral symmetry is turned off.
 Nuclear repulsion after empirical dispersion term =      110.6651073783 Hartrees.
 One-electron integrals computed using PRISM.
 NBasis=   100 RedAO= T EigKep=  6.21D-04  NBF=   100
 NBsUse=   100 1.00D-06 EigRej= -1.00D+00 NBFU=   100
 Initial guess from the checkpoint file:  "CH3Cl-Cl-irc.chk"
 B after Tr=    -0.000236    0.000003    0.000000
         Rot=    1.000000    0.000138    0.000000   -0.000000 Ang=   0.02 deg.
 ExpMin= 4.38D-02 ExpMax= 1.06D+05 ExpMxC= 3.62D+03 IAcc=3 IRadAn=         5 AccDes= 0.00D+00
 Harris functional with IExCor= 1009 and IRadAn=       5 diagonalized for initial guess.
 HarFok:  IExCor= 1009 AccDes= 0.00D+00 IRadAn=         5 IDoV= 1 UseB2=F ITyADJ=14
 ICtDFT=  3500011 ScaDFX=  1.000000  1.000000  1.000000  1.000000
 FoFCou: FMM=F IPFlag=           0 FMFlag=      100000 FMFlg1=           0
         NFxFlg=           0 DoJE=T BraDBF=F KetDBF=T FulRan=T
         wScrn=  0.000000 ICntrl=       500 IOpCl=  0 I1Cent=   200000004 NGrid=           0
         NMat0=    1 NMatS0=      1 NMatT0=    0 NMatD0=    1 NMtDS0=    0 NMtDT0=    0
 Symmetry not used in FoFCou.
 Keep R1 ints in memory in canonical form, NReq=27595042.
 Requested convergence on RMS density matrix=1.00D-08 within 128 cycles.
 Requested convergence on MAX density matrix=1.00D-06.
 Requested convergence on             energy=1.00D-06.
 No special actions if energy rises.
 SCF Done:  E(RM062X) =  -960.358339816     A.U. after   10 cycles
            NFock= 10  Conv=0.30D-08     -V/T= 2.0022
 DoSCS=F DFT=T ScalE2(SS,OS)=  1.000000  1.000000
 Range of M.O.s used for correlation:     1   100
 NBasis=   100 NAE=    22 NBE=    22 NFC=     0 NFV=     0
 NROrb=    100 NOA=    22 NOB=    22 NVA=    78 NVB=    78

 **** Warning!!: The largest alpha MO coefficient is  0.19785980D+02

 Symmetrizing basis deriv contribution to polar:
 IMax=3 JMax=2 DiffMx= 0.00D+00
 Calling FoFJK, ICntrl=      2127 FMM=F ISym2X=0 I1Cent= 0 IOpClX= 0 NMat=1 NMatS=1 NMatT=0.
 -------------------------------------------------------------------
 Center     Atomic                   Forces (Hartrees/Bohr)
 Number     Number              X              Y              Z
 -------------------------------------------------------------------
      1        6          -0.013086318    0.000017104    0.000002765
      2        1          -0.000040604   -0.000228482   -0.000350703
      3        1          -0.000042474    0.000420550   -0.000024373
      4        1          -0.000043687   -0.000186590    0.000372461
      5       17           0.006679988   -0.000010762    0.000003314
      6       17           0.006533095   -0.000011819   -0.000003465
 -------------------------------------------------------------------
 Cartesian Forces:  Max     0.013086318 RMS     0.003793909
 IRC-IRC-IRC-IRC-IRC-IRC-IRC-IRC-IRC-IRC-IRC-IRC-IRC-IRC-IRC-IRC-IRC-IRC
 Pt  3 Step number   1 out of a maximum of  20
 Point Number:   3          Path Number:   1
   CHANGE IN THE REACTION COORDINATE =    0.18207
   NET REACTION COORDINATE UP TO THIS POINT =    0.54636
  # OF POINTS ALONG THE PATH =   3
  # OF STEPS =   1

 Calculating another point on the path.
 IRC-IRC-IRC-IRC-IRC-IRC-IRC-IRC-IRC-IRC-IRC-IRC-IRC-IRC-IRC-IRC-IRC-IRC
                          Input orientation:                          
 ---------------------------------------------------------------------
 Center     Atomic      Atomic             Coordinates (Angstroms)
 Number     Number       Type             X           Y           Z
 ---------------------------------------------------------------------
      1          6           0       -0.102688    0.000134   -0.000402
      2          1           0       -0.002345    0.605270    0.881196
      3          1           0       -0.002373   -1.065896    0.082934
      4          1           0       -0.002536    0.461053   -0.965329
      5         17           0        2.331717   -0.000028    0.000094
      6         17           0       -2.296269   -0.000031    0.000079
 ---------------------------------------------------------------------
                    Distance matrix (angstroms):
                    1          2          3          4          5
     1  C    0.000000
     2  H    1.073999   0.000000
     3  H    1.073978   1.852031   0.000000
     4  H    1.074040   1.852149   1.852142   0.000000
     5  Cl   2.434405   2.567211   2.567277   2.567756   0.000000
     6  Cl   2.193581   2.530779   2.530789   2.530973   4.627986
                    6
     6  Cl   0.000000
 Symmetry turned off by external request.
 Stoichiometry    CH3Cl2(1-)
 Framework group  C1[X(CH3Cl2)]
 Deg. of freedom    12
 Full point group                 C1      NOp   1
 Rotational constants (GHZ):         146.1838696           1.3427975           1.3427965
 Standard basis: 6-311+G(d,p) (5D, 7F)
   100 basis functions,   166 primitive gaussians,   103 cartesian basis functions
    22 alpha electrons       22 beta electrons
       nuclear repulsion energy       110.7250464614 Hartrees.
 NAtoms=    6 NActive=    6 NUniq=    6 SFac= 1.00D+00 NAtFMM=   60 NAOKFM=F Big=F
 Integral buffers will be    131072 words long.
 Raffenetti 2 integral format.
 Two-electron integral symmetry is turned off.
 Nuclear repulsion after empirical dispersion term =      110.7250337008 Hartrees.
 One-electron integrals computed using PRISM.
 NBasis=   100 RedAO= T EigKep=  6.12D-04  NBF=   100
 NBsUse=   100 1.00D-06 EigRej= -1.00D+00 NBFU=   100
 Initial guess from the checkpoint file:  "CH3Cl-Cl-irc.chk"
 B after Tr=    -0.000245    0.000002   -0.000000
         Rot=    1.000000    0.000082    0.000000   -0.000000 Ang=   0.01 deg.
 ExpMin= 4.38D-02 ExpMax= 1.06D+05 ExpMxC= 3.62D+03 IAcc=3 IRadAn=         5 AccDes= 0.00D+00
 Harris functional with IExCor= 1009 and IRadAn=       5 diagonalized for initial guess.
 HarFok:  IExCor= 1009 AccDes= 0.00D+00 IRadAn=         5 IDoV= 1 UseB2=F ITyADJ=14
 ICtDFT=  3500011 ScaDFX=  1.000000  1.000000  1.000000  1.000000
 FoFCou: FMM=F IPFlag=           0 FMFlag=      100000 FMFlg1=           0
         NFxFlg=           0 DoJE=T BraDBF=F KetDBF=T FulRan=T
         wScrn=  0.000000 ICntrl=       500 IOpCl=  0 I1Cent=   200000004 NGrid=           0
         NMat0=    1 NMatS0=      1 NMatT0=    0 NMatD0=    1 NMtDS0=    0 NMtDT0=    0
 Symmetry not used in FoFCou.
 Keep R1 ints in memory in canonical form, NReq=27595042.
 Requested convergence on RMS density matrix=1.00D-08 within 128 cycles.
 Requested convergence on MAX density matrix=1.00D-06.
 Requested convergence on             energy=1.00D-06.
 No special actions if energy rises.
 SCF Done:  E(RM062X) =  -960.359208901     A.U. after   10 cycles
            NFock= 10  Conv=0.44D-08     -V/T= 2.0022
 DoSCS=F DFT=T ScalE2(SS,OS)=  1.000000  1.000000
 Range of M.O.s used for correlation:     1   100
 NBasis=   100 NAE=    22 NBE=    22 NFC=     0 NFV=     0
 NROrb=    100 NOA=    22 NOB=    22 NVA=    78 NVB=    78

 **** Warning!!: The largest alpha MO coefficient is  0.19731373D+02

 Symmetrizing basis deriv contribution to polar:
 IMax=3 JMax=2 DiffMx= 0.00D+00
 Calling FoFJK, ICntrl=      2127 FMM=F ISym2X=0 I1Cent= 0 IOpClX= 0 NMat=1 NMatS=1 NMatT=0.
 -------------------------------------------------------------------
 Center     Atomic                   Forces (Hartrees/Bohr)
 Number     Number              X              Y              Z
 -------------------------------------------------------------------
      1        6          -0.017209573    0.000017080    0.000002285
      2        1          -0.000076990   -0.000242436   -0.000370416
      3        1          -0.000077497    0.000443675   -0.000027747
      4        1          -0.000080642   -0.000196408    0.000395200
      5       17           0.008752835   -0.000010997    0.000004477
      6       17           0.008691868   -0.000010913   -0.000003799
 -------------------------------------------------------------------
 Cartesian Forces:  Max     0.017209573 RMS     0.004994094
 IRC-IRC-IRC-IRC-IRC-IRC-IRC-IRC-IRC-IRC-IRC-IRC-IRC-IRC-IRC-IRC-IRC-IRC
 Pt  4 Step number   1 out of a maximum of  20
 Point Number:   4          Path Number:   1
   CHANGE IN THE REACTION COORDINATE =    0.18211
   NET REACTION COORDINATE UP TO THIS POINT =    0.72847
  # OF POINTS ALONG THE PATH =   4
  # OF STEPS =   1

 Calculating another point on the path.
 IRC-IRC-IRC-IRC-IRC-IRC-IRC-IRC-IRC-IRC-IRC-IRC-IRC-IRC-IRC-IRC-IRC-IRC
                          Input orientation:                          
 ---------------------------------------------------------------------
 Center     Atomic      Atomic             Coordinates (Angstroms)
 Number     Number       Type             X           Y           Z
 ---------------------------------------------------------------------
      1          6           0       -0.128318    0.000158   -0.000401
      2          1           0       -0.003566    0.604130    0.879267
      3          1           0       -0.003604   -1.063621    0.082871
      4          1           0       -0.003821    0.459995   -0.963362
      5         17           0        2.336171   -0.000033    0.000096
      6         17           0       -2.291821   -0.000036    0.000077
 ---------------------------------------------------------------------
                    Distance matrix (angstroms):
                    1          2          3          4          5
     1  C    0.000000
     2  H    1.074319   0.000000
     3  H    1.074297   1.848145   0.000000
     4  H    1.074358   1.848258   1.848245   0.000000
     5  Cl   2.464490   2.571444   2.571501   2.572050   0.000000
     6  Cl   2.163502   2.524698   2.524679   2.524834   4.627992
                    6
     6  Cl   0.000000
 Symmetry turned off by external request.
 Stoichiometry    CH3Cl2(1-)
 Framework group  C1[X(CH3Cl2)]
 Deg. of freedom    12
 Full point group                 C1      NOp   1
 Rotational constants (GHZ):         146.8000459           1.3425219           1.3425209
 Standard basis: 6-311+G(d,p) (5D, 7F)
   100 basis functions,   166 primitive gaussians,   103 cartesian basis functions
    22 alpha electrons       22 beta electrons
       nuclear repulsion energy       110.8040364147 Hartrees.
 NAtoms=    6 NActive=    6 NUniq=    6 SFac= 1.00D+00 NAtFMM=   60 NAOKFM=F Big=F
 Integral buffers will be    131072 words long.
 Raffenetti 2 integral format.
 Two-electron integral symmetry is turned off.
 Nuclear repulsion after empirical dispersion term =      110.8040236541 Hartrees.
 One-electron integrals computed using PRISM.
 NBasis=   100 RedAO= T EigKep=  6.01D-04  NBF=   100
 NBsUse=   100 1.00D-06 EigRej= -1.00D+00 NBFU=   100
 Initial guess from the checkpoint file:  "CH3Cl-Cl-irc.chk"
 B after Tr=    -0.000271    0.000002   -0.000001
         Rot=    1.000000    0.000058    0.000000   -0.000000 Ang=   0.01 deg.
 ExpMin= 4.38D-02 ExpMax= 1.06D+05 ExpMxC= 3.62D+03 IAcc=3 IRadAn=         5 AccDes= 0.00D+00
 Harris functional with IExCor= 1009 and IRadAn=       5 diagonalized for initial guess.
 HarFok:  IExCor= 1009 AccDes= 0.00D+00 IRadAn=         5 IDoV= 1 UseB2=F ITyADJ=14
 ICtDFT=  3500011 ScaDFX=  1.000000  1.000000  1.000000  1.000000
 FoFCou: FMM=F IPFlag=           0 FMFlag=      100000 FMFlg1=           0
         NFxFlg=           0 DoJE=T BraDBF=F KetDBF=T FulRan=T
         wScrn=  0.000000 ICntrl=       500 IOpCl=  0 I1Cent=   200000004 NGrid=           0
         NMat0=    1 NMatS0=      1 NMatT0=    0 NMatD0=    1 NMtDS0=    0 NMtDT0=    0
 Symmetry not used in FoFCou.
 Keep R1 ints in memory in canonical form, NReq=27595042.
 Requested convergence on RMS density matrix=1.00D-08 within 128 cycles.
 Requested convergence on MAX density matrix=1.00D-06.
 Requested convergence on             energy=1.00D-06.
 No special actions if energy rises.
 SCF Done:  E(RM062X) =  -960.360304520     A.U. after   10 cycles
            NFock= 10  Conv=0.55D-08     -V/T= 2.0022
 DoSCS=F DFT=T ScalE2(SS,OS)=  1.000000  1.000000
 Range of M.O.s used for correlation:     1   100
 NBasis=   100 NAE=    22 NBE=    22 NFC=     0 NFV=     0
 NROrb=    100 NOA=    22 NOB=    22 NVA=    78 NVB=    78

 **** Warning!!: The largest alpha MO coefficient is  0.19854321D+02

 Symmetrizing basis deriv contribution to polar:
 IMax=3 JMax=2 DiffMx= 0.00D+00
 Calling FoFJK, ICntrl=      2127 FMM=F ISym2X=0 I1Cent= 0 IOpClX= 0 NMat=1 NMatS=1 NMatT=0.
 -------------------------------------------------------------------
 Center     Atomic                   Forces (Hartrees/Bohr)
 Number     Number              X              Y              Z
 -------------------------------------------------------------------
      1        6          -0.020939510    0.000014468    0.000002383
      2        1          -0.000135420   -0.000250407   -0.000383571
      3        1          -0.000132280    0.000460830   -0.000029804
      4        1          -0.000138375   -0.000202854    0.000409024
      5       17           0.010680441   -0.000011484    0.000005716
      6       17           0.010665145   -0.000010553   -0.000003748
 -------------------------------------------------------------------
 Cartesian Forces:  Max     0.020939510 RMS     0.006087178
 IRC-IRC-IRC-IRC-IRC-IRC-IRC-IRC-IRC-IRC-IRC-IRC-IRC-IRC-IRC-IRC-IRC-IRC
 Pt  5 Step number   1 out of a maximum of  20
 Point Number:   5          Path Number:   1
   CHANGE IN THE REACTION COORDINATE =    0.18213
   NET REACTION COORDINATE UP TO THIS POINT =    0.91060
  # OF POINTS ALONG THE PATH =   5
  # OF STEPS =   1

 Calculating another point on the path.
 IRC-IRC-IRC-IRC-IRC-IRC-IRC-IRC-IRC-IRC-IRC-IRC-IRC-IRC-IRC-IRC-IRC-IRC
                          Input orientation:                          
 ---------------------------------------------------------------------
 Center     Atomic      Atomic             Coordinates (Angstroms)
 Number     Number       Type             X           Y           Z
 ---------------------------------------------------------------------
      1          6           0       -0.153913    0.000177   -0.000400
      2          1           0       -0.005400    0.602755    0.877018
      3          1           0       -0.005397   -1.060956    0.082749
      4          1           0       -0.005702    0.458783   -0.961032
      5         17           0        2.340639   -0.000037    0.000098
      6         17           0       -2.287347   -0.000040    0.000075
 ---------------------------------------------------------------------
                    Distance matrix (angstroms):
                    1          2          3          4          5
     1  C    0.000000
     2  H    1.074719   0.000000
     3  H    1.074696   1.843583   0.000000
     4  H    1.074756   1.843680   1.843661   0.000000
     5  Cl   2.494552   2.576092   2.576095   2.576743   0.000000
     6  Cl   2.133434   2.517871   2.517870   2.517966   4.627986
                    6
     6  Cl   0.000000
 Symmetry turned off by external request.
 Stoichiometry    CH3Cl2(1-)
 Framework group  C1[X(CH3Cl2)]
 Deg. of freedom    12
 Full point group                 C1      NOp   1
 Rotational constants (GHZ):         147.5294755           1.3421918           1.3421910
 Standard basis: 6-311+G(d,p) (5D, 7F)
   100 basis functions,   166 primitive gaussians,   103 cartesian basis functions
    22 alpha electrons       22 beta electrons
       nuclear repulsion energy       110.9006894691 Hartrees.
 NAtoms=    6 NActive=    6 NUniq=    6 SFac= 1.00D+00 NAtFMM=   60 NAOKFM=F Big=F
 Integral buffers will be    131072 words long.
 Raffenetti 2 integral format.
 Two-electron integral symmetry is turned off.
 Nuclear repulsion after empirical dispersion term =      110.9006767082 Hartrees.
 One-electron integrals computed using PRISM.
 NBasis=   100 RedAO= T EigKep=  5.88D-04  NBF=   100
 NBsUse=   100 1.00D-06 EigRej= -1.00D+00 NBFU=   100
 Initial guess from the checkpoint file:  "CH3Cl-Cl-irc.chk"
 B after Tr=    -0.000310    0.000002   -0.000001
         Rot=    1.000000    0.000050    0.000000   -0.000000 Ang=   0.01 deg.
 ExpMin= 4.38D-02 ExpMax= 1.06D+05 ExpMxC= 3.62D+03 IAcc=3 IRadAn=         5 AccDes= 0.00D+00
 Harris functional with IExCor= 1009 and IRadAn=       5 diagonalized for initial guess.
 HarFok:  IExCor= 1009 AccDes= 0.00D+00 IRadAn=         5 IDoV= 1 UseB2=F ITyADJ=14
 ICtDFT=  3500011 ScaDFX=  1.000000  1.000000  1.000000  1.000000
 FoFCou: FMM=F IPFlag=           0 FMFlag=      100000 FMFlg1=           0
         NFxFlg=           0 DoJE=T BraDBF=F KetDBF=T FulRan=T
         wScrn=  0.000000 ICntrl=       500 IOpCl=  0 I1Cent=   200000004 NGrid=           0
         NMat0=    1 NMatS0=      1 NMatT0=    0 NMatD0=    1 NMtDS0=    0 NMtDT0=    0
 Symmetry not used in FoFCou.
 Keep R1 ints in memory in canonical form, NReq=27595042.
 Requested convergence on RMS density matrix=1.00D-08 within 128 cycles.
 Requested convergence on MAX density matrix=1.00D-06.
 Requested convergence on             energy=1.00D-06.
 No special actions if energy rises.
 SCF Done:  E(RM062X) =  -960.361601170     A.U. after   10 cycles
            NFock= 10  Conv=0.61D-08     -V/T= 2.0022
 DoSCS=F DFT=T ScalE2(SS,OS)=  1.000000  1.000000
 Range of M.O.s used for correlation:     1   100
 NBasis=   100 NAE=    22 NBE=    22 NFC=     0 NFV=     0
 NROrb=    100 NOA=    22 NOB=    22 NVA=    78 NVB=    78

 **** Warning!!: The largest alpha MO coefficient is  0.20209424D+02

 Symmetrizing basis deriv contribution to polar:
 IMax=3 JMax=2 DiffMx= 0.00D+00
 Calling FoFJK, ICntrl=      2127 FMM=F ISym2X=0 I1Cent= 0 IOpClX= 0 NMat=1 NMatS=1 NMatT=0.
 -------------------------------------------------------------------
 Center     Atomic                   Forces (Hartrees/Bohr)
 Number     Number              X              Y              Z
 -------------------------------------------------------------------
      1        6          -0.024139211    0.000012536    0.000000893
      2        1          -0.000220526   -0.000255097   -0.000393136
      3        1          -0.000214306    0.000474000   -0.000030661
      4        1          -0.000221810   -0.000208422    0.000419305
      5       17           0.012381838   -0.000012019    0.000007079
      6       17           0.012414015   -0.000010998   -0.000003480
 -------------------------------------------------------------------
 Cartesian Forces:  Max     0.024139211 RMS     0.007035339
 IRC-IRC-IRC-IRC-IRC-IRC-IRC-IRC-IRC-IRC-IRC-IRC-IRC-IRC-IRC-IRC-IRC-IRC
 Pt  6 Step number   1 out of a maximum of  20
 Point Number:   6          Path Number:   1
   CHANGE IN THE REACTION COORDINATE =    0.18214
   NET REACTION COORDINATE UP TO THIS POINT =    1.09274
  # OF POINTS ALONG THE PATH =   6
  # OF STEPS =   1

 Calculating another point on the path.
 IRC-IRC-IRC-IRC-IRC-IRC-IRC-IRC-IRC-IRC-IRC-IRC-IRC-IRC-IRC-IRC-IRC-IRC
                          Input orientation:                          
 ---------------------------------------------------------------------
 Center     Atomic      Atomic             Coordinates (Angstroms)
 Number     Number       Type             X           Y           Z
 ---------------------------------------------------------------------
      1          6           0       -0.179455    0.000193   -0.000400
      2          1           0       -0.008070    0.601199    0.874497
      3          1           0       -0.007991   -1.057960    0.082592
      4          1           0       -0.008391    0.457433   -0.958405
      5         17           0        2.345126   -0.000042    0.000101
      6         17           0       -2.282839   -0.000044    0.000074
 ---------------------------------------------------------------------
                    Distance matrix (angstroms):
                    1          2          3          4          5
     1  C    0.000000
     2  H    1.075187   0.000000
     3  H    1.075163   1.838457   0.000000
     4  H    1.075222   1.838532   1.838502   0.000000
     5  Cl   2.524581   2.581393   2.581309   2.582065   0.000000
     6  Cl   2.103384   2.510116   2.510165   2.510195   4.627965
                    6
     6  Cl   0.000000
 Symmetry turned off by external request.
 Stoichiometry    CH3Cl2(1-)
 Framework group  C1[X(CH3Cl2)]
 Deg. of freedom    12
 Full point group                 C1      NOp   1
 Rotational constants (GHZ):         148.3562371           1.3418085           1.3418079
 Standard basis: 6-311+G(d,p) (5D, 7F)
   100 basis functions,   166 primitive gaussians,   103 cartesian basis functions
    22 alpha electrons       22 beta electrons
       nuclear repulsion energy       111.0151166239 Hartrees.
 NAtoms=    6 NActive=    6 NUniq=    6 SFac= 1.00D+00 NAtFMM=   60 NAOKFM=F Big=F
 Integral buffers will be    131072 words long.
 Raffenetti 2 integral format.
 Two-electron integral symmetry is turned off.
 Nuclear repulsion after empirical dispersion term =      111.0151038622 Hartrees.
 One-electron integrals computed using PRISM.
 NBasis=   100 RedAO= T EigKep=  5.73D-04  NBF=   100
 NBsUse=   100 1.00D-06 EigRej= -1.00D+00 NBFU=   100
 Initial guess from the checkpoint file:  "CH3Cl-Cl-irc.chk"
 B after Tr=    -0.000365    0.000002   -0.000001
         Rot=    1.000000    0.000048    0.000000   -0.000000 Ang=   0.01 deg.
 ExpMin= 4.38D-02 ExpMax= 1.06D+05 ExpMxC= 3.62D+03 IAcc=3 IRadAn=         5 AccDes= 0.00D+00
 Harris functional with IExCor= 1009 and IRadAn=       5 diagonalized for initial guess.
 HarFok:  IExCor= 1009 AccDes= 0.00D+00 IRadAn=         5 IDoV= 1 UseB2=F ITyADJ=14
 ICtDFT=  3500011 ScaDFX=  1.000000  1.000000  1.000000  1.000000
 FoFCou: FMM=F IPFlag=           0 FMFlag=      100000 FMFlg1=           0
         NFxFlg=           0 DoJE=T BraDBF=F KetDBF=T FulRan=T
         wScrn=  0.000000 ICntrl=       500 IOpCl=  0 I1Cent=   200000004 NGrid=           0
         NMat0=    1 NMatS0=      1 NMatT0=    0 NMatD0=    1 NMtDS0=    0 NMtDT0=    0
 Symmetry not used in FoFCou.
 Keep R1 ints in memory in canonical form, NReq=27595042.
 Requested convergence on RMS density matrix=1.00D-08 within 128 cycles.
 Requested convergence on MAX density matrix=1.00D-06.
 Requested convergence on             energy=1.00D-06.
 No special actions if energy rises.
 SCF Done:  E(RM062X) =  -960.363066595     A.U. after   10 cycles
            NFock= 10  Conv=0.64D-08     -V/T= 2.0022
 DoSCS=F DFT=T ScalE2(SS,OS)=  1.000000  1.000000
 Range of M.O.s used for correlation:     1   100
 NBasis=   100 NAE=    22 NBE=    22 NFC=     0 NFV=     0
 NROrb=    100 NOA=    22 NOB=    22 NVA=    78 NVB=    78

 **** Warning!!: The largest alpha MO coefficient is  0.20546770D+02

 Symmetrizing basis deriv contribution to polar:
 IMax=3 JMax=2 DiffMx= 0.00D+00
 Calling FoFJK, ICntrl=      2127 FMM=F ISym2X=0 I1Cent= 0 IOpClX= 0 NMat=1 NMatS=1 NMatT=0.
 -------------------------------------------------------------------
 Center     Atomic                   Forces (Hartrees/Bohr)
 Number     Number              X              Y              Z
 -------------------------------------------------------------------
      1        6          -0.026711672    0.000014104   -0.000001583
      2        1          -0.000325872   -0.000253930   -0.000393131
      3        1          -0.000320562    0.000473435   -0.000029474
      4        1          -0.000325439   -0.000209195    0.000419080
      5       17           0.013752377   -0.000012333    0.000008583
      6       17           0.013931168   -0.000012081   -0.000003476
 -------------------------------------------------------------------
 Cartesian Forces:  Max     0.026711672 RMS     0.007809174
 IRC-IRC-IRC-IRC-IRC-IRC-IRC-IRC-IRC-IRC-IRC-IRC-IRC-IRC-IRC-IRC-IRC-IRC
 Pt  7 Step number   1 out of a maximum of  20
 Point Number:   7          Path Number:   1
   CHANGE IN THE REACTION COORDINATE =    0.18215
   NET REACTION COORDINATE UP TO THIS POINT =    1.27490
  # OF POINTS ALONG THE PATH =   7
  # OF STEPS =   1

 Calculating another point on the path.
 IRC-IRC-IRC-IRC-IRC-IRC-IRC-IRC-IRC-IRC-IRC-IRC-IRC-IRC-IRC-IRC-IRC-IRC
                          Input orientation:                          
 ---------------------------------------------------------------------
 Center     Atomic      Atomic             Coordinates (Angstroms)
 Number     Number       Type             X           Y           Z
 ---------------------------------------------------------------------
      1          6           0       -0.204930    0.000209   -0.000402
      2          1           0       -0.011708    0.599505    0.871774
      3          1           0       -0.011571   -1.054718    0.082420
      4          1           0       -0.012026    0.455975   -0.955556
      5         17           0        2.349614   -0.000046    0.000104
      6         17           0       -2.278272   -0.000048    0.000073
 ---------------------------------------------------------------------
                    Distance matrix (angstroms):
                    1          2          3          4          5
     1  C    0.000000
     2  H    1.075723   0.000000
     3  H    1.075694   1.832902   0.000000
     4  H    1.075758   1.832958   1.832918   0.000000
     5  Cl   2.554544   2.587491   2.587335   2.588162   0.000000
     6  Cl   2.073343   2.501328   2.501409   2.501411   4.627887
                    6
     6  Cl   0.000000
 Symmetry turned off by external request.
 Stoichiometry    CH3Cl2(1-)
 Framework group  C1[X(CH3Cl2)]
 Deg. of freedom    12
 Full point group                 C1      NOp   1
 Rotational constants (GHZ):         149.2594043           1.3413959           1.3413954
 Standard basis: 6-311+G(d,p) (5D, 7F)
   100 basis functions,   166 primitive gaussians,   103 cartesian basis functions
    22 alpha electrons       22 beta electrons
       nuclear repulsion energy       111.1481372184 Hartrees.
 NAtoms=    6 NActive=    6 NUniq=    6 SFac= 1.00D+00 NAtFMM=   60 NAOKFM=F Big=F
 Integral buffers will be    131072 words long.
 Raffenetti 2 integral format.
 Two-electron integral symmetry is turned off.
 Nuclear repulsion after empirical dispersion term =      111.1481244552 Hartrees.
 One-electron integrals computed using PRISM.
 NBasis=   100 RedAO= T EigKep=  5.57D-04  NBF=   100
 NBsUse=   100 1.00D-06 EigRej= -1.00D+00 NBFU=   100
 Initial guess from the checkpoint file:  "CH3Cl-Cl-irc.chk"
 B after Tr=    -0.000429    0.000002   -0.000001
         Rot=    1.000000    0.000050    0.000000   -0.000000 Ang=   0.01 deg.
 ExpMin= 4.38D-02 ExpMax= 1.06D+05 ExpMxC= 3.62D+03 IAcc=3 IRadAn=         5 AccDes= 0.00D+00
 Harris functional with IExCor= 1009 and IRadAn=       5 diagonalized for initial guess.
 HarFok:  IExCor= 1009 AccDes= 0.00D+00 IRadAn=         5 IDoV= 1 UseB2=F ITyADJ=14
 ICtDFT=  3500011 ScaDFX=  1.000000  1.000000  1.000000  1.000000
 FoFCou: FMM=F IPFlag=           0 FMFlag=      100000 FMFlg1=           0
         NFxFlg=           0 DoJE=T BraDBF=F KetDBF=T FulRan=T
         wScrn=  0.000000 ICntrl=       500 IOpCl=  0 I1Cent=   200000004 NGrid=           0
         NMat0=    1 NMatS0=      1 NMatT0=    0 NMatD0=    1 NMtDS0=    0 NMtDT0=    0
 Symmetry not used in FoFCou.
 Keep R1 ints in memory in canonical form, NReq=27595042.
 Requested convergence on RMS density matrix=1.00D-08 within 128 cycles.
 Requested convergence on MAX density matrix=1.00D-06.
 Requested convergence on             energy=1.00D-06.
 No special actions if energy rises.
 SCF Done:  E(RM062X) =  -960.364661284     A.U. after   10 cycles
            NFock= 10  Conv=0.65D-08     -V/T= 2.0022
 DoSCS=F DFT=T ScalE2(SS,OS)=  1.000000  1.000000
 Range of M.O.s used for correlation:     1   100
 NBasis=   100 NAE=    22 NBE=    22 NFC=     0 NFV=     0
 NROrb=    100 NOA=    22 NOB=    22 NVA=    78 NVB=    78

 **** Warning!!: The largest alpha MO coefficient is  0.20862496D+02

 Symmetrizing basis deriv contribution to polar:
 IMax=3 JMax=2 DiffMx= 0.00D+00
 Calling FoFJK, ICntrl=      2127 FMM=F ISym2X=0 I1Cent= 0 IOpClX= 0 NMat=1 NMatS=1 NMatT=0.
 -------------------------------------------------------------------
 Center     Atomic                   Forces (Hartrees/Bohr)
 Number     Number              X              Y              Z
 -------------------------------------------------------------------
      1        6          -0.028444577    0.000020025   -0.000003654
      2        1          -0.000445933   -0.000251044   -0.000387762
      3        1          -0.000444545    0.000462786   -0.000027336
      4        1          -0.000445157   -0.000206601    0.000412684
      5       17           0.014716977   -0.000012451    0.000010147
      6       17           0.015063234   -0.000012715   -0.000004079
 -------------------------------------------------------------------
 Cartesian Forces:  Max     0.028444577 RMS     0.008346061
 IRC-IRC-IRC-IRC-IRC-IRC-IRC-IRC-IRC-IRC-IRC-IRC-IRC-IRC-IRC-IRC-IRC-IRC
 Pt  8 Step number   1 out of a maximum of  20
 Point Number:   8          Path Number:   1
   CHANGE IN THE REACTION COORDINATE =    0.18216
   NET REACTION COORDINATE UP TO THIS POINT =    1.45706
  # OF POINTS ALONG THE PATH =   8
  # OF STEPS =   1

 Calculating another point on the path.
 IRC-IRC-IRC-IRC-IRC-IRC-IRC-IRC-IRC-IRC-IRC-IRC-IRC-IRC-IRC-IRC-IRC-IRC
                          Input orientation:                          
 ---------------------------------------------------------------------
 Center     Atomic      Atomic             Coordinates (Angstroms)
 Number     Number       Type             X           Y           Z
 ---------------------------------------------------------------------
      1          6           0       -0.230319    0.000225   -0.000404
      2          1           0       -0.016435    0.597697    0.868906
      3          1           0       -0.016287   -1.051302    0.082242
      4          1           0       -0.016747    0.454439   -0.952544
      5         17           0        2.354111   -0.000049    0.000107
      6         17           0       -2.273648   -0.000052    0.000072
 ---------------------------------------------------------------------
                    Distance matrix (angstroms):
                    1          2          3          4          5
     1  C    0.000000
     2  H    1.076299   0.000000
     3  H    1.076266   1.827030   0.000000
     4  H    1.076334   1.827076   1.827030   0.000000
     5  Cl   2.584430   2.594533   2.594352   2.595201   0.000000
     6  Cl   2.043330   2.491423   2.491497   2.491515   4.627759
                    6
     6  Cl   0.000000
 Symmetry turned off by external request.
 Stoichiometry    CH3Cl2(1-)
 Framework group  C1[X(CH3Cl2)]
 Deg. of freedom    12
 Full point group                 C1      NOp   1
 Rotational constants (GHZ):         150.2217867           1.3409483           1.3409479
 Standard basis: 6-311+G(d,p) (5D, 7F)
   100 basis functions,   166 primitive gaussians,   103 cartesian basis functions
    22 alpha electrons       22 beta electrons
       nuclear repulsion energy       111.2997805449 Hartrees.
 NAtoms=    6 NActive=    6 NUniq=    6 SFac= 1.00D+00 NAtFMM=   60 NAOKFM=F Big=F
 Integral buffers will be    131072 words long.
 Raffenetti 2 integral format.
 Two-electron integral symmetry is turned off.
 Nuclear repulsion after empirical dispersion term =      111.2997677787 Hartrees.
 One-electron integrals computed using PRISM.
 NBasis=   100 RedAO= T EigKep=  5.40D-04  NBF=   100
 NBsUse=   100 1.00D-06 EigRej= -1.00D+00 NBFU=   100
 Initial guess from the checkpoint file:  "CH3Cl-Cl-irc.chk"
 B after Tr=    -0.000503    0.000002   -0.000001
         Rot=    1.000000    0.000049    0.000000   -0.000000 Ang=   0.01 deg.
 ExpMin= 4.38D-02 ExpMax= 1.06D+05 ExpMxC= 3.62D+03 IAcc=3 IRadAn=         5 AccDes= 0.00D+00
 Harris functional with IExCor= 1009 and IRadAn=       5 diagonalized for initial guess.
 HarFok:  IExCor= 1009 AccDes= 0.00D+00 IRadAn=         5 IDoV= 1 UseB2=F ITyADJ=14
 ICtDFT=  3500011 ScaDFX=  1.000000  1.000000  1.000000  1.000000
 FoFCou: FMM=F IPFlag=           0 FMFlag=      100000 FMFlg1=           0
         NFxFlg=           0 DoJE=T BraDBF=F KetDBF=T FulRan=T
         wScrn=  0.000000 ICntrl=       500 IOpCl=  0 I1Cent=   200000004 NGrid=           0
         NMat0=    1 NMatS0=      1 NMatT0=    0 NMatD0=    1 NMtDS0=    0 NMtDT0=    0
 Symmetry not used in FoFCou.
 Keep R1 ints in memory in canonical form, NReq=27595042.
 Requested convergence on RMS density matrix=1.00D-08 within 128 cycles.
 Requested convergence on MAX density matrix=1.00D-06.
 Requested convergence on             energy=1.00D-06.
 No special actions if energy rises.
 SCF Done:  E(RM062X) =  -960.366329770     A.U. after   10 cycles
            NFock= 10  Conv=0.64D-08     -V/T= 2.0022
 DoSCS=F DFT=T ScalE2(SS,OS)=  1.000000  1.000000
 Range of M.O.s used for correlation:     1   100
 NBasis=   100 NAE=    22 NBE=    22 NFC=     0 NFV=     0
 NROrb=    100 NOA=    22 NOB=    22 NVA=    78 NVB=    78

 **** Warning!!: The largest alpha MO coefficient is  0.21150563D+02

 Symmetrizing basis deriv contribution to polar:
 IMax=3 JMax=2 DiffMx= 0.00D+00
 Calling FoFJK, ICntrl=      2127 FMM=F ISym2X=0 I1Cent= 0 IOpClX= 0 NMat=1 NMatS=1 NMatT=0.
 -------------------------------------------------------------------
 Center     Atomic                   Forces (Hartrees/Bohr)
 Number     Number              X              Y              Z
 -------------------------------------------------------------------
      1        6          -0.029078347    0.000024337   -0.000004287
      2        1          -0.000565373   -0.000241555   -0.000370495
      3        1          -0.000568114    0.000438624   -0.000025149
      4        1          -0.000565641   -0.000196768    0.000392996
      5       17           0.015269008   -0.000012779    0.000011543
      6       17           0.015508467   -0.000011858   -0.000004608
 -------------------------------------------------------------------
 Cartesian Forces:  Max     0.029078347 RMS     0.008565923
 IRC-IRC-IRC-IRC-IRC-IRC-IRC-IRC-IRC-IRC-IRC-IRC-IRC-IRC-IRC-IRC-IRC-IRC
 Pt  9 Step number   1 out of a maximum of  20
 Point Number:   9          Path Number:   1
   CHANGE IN THE REACTION COORDINATE =    0.18216
   NET REACTION COORDINATE UP TO THIS POINT =    1.63922
  # OF POINTS ALONG THE PATH =   9
  # OF STEPS =   1

 Calculating another point on the path.
 IRC-IRC-IRC-IRC-IRC-IRC-IRC-IRC-IRC-IRC-IRC-IRC-IRC-IRC-IRC-IRC-IRC-IRC
                          Input orientation:                          
 ---------------------------------------------------------------------
 Center     Atomic      Atomic             Coordinates (Angstroms)
 Number     Number       Type             X           Y           Z
 ---------------------------------------------------------------------
      1          6           0       -0.255607    0.000242   -0.000409
      2          1           0       -0.022327    0.595805    0.865953
      3          1           0       -0.022212   -1.047780    0.082058
      4          1           0       -0.022644    0.452859   -0.949430
      5         17           0        2.358677   -0.000053    0.000110
      6         17           0       -2.269026   -0.000055    0.000071
 ---------------------------------------------------------------------
                    Distance matrix (angstroms):
                    1          2          3          4          5
     1  C    0.000000
     2  H    1.076892   0.000000
     3  H    1.076859   1.820951   0.000000
     4  H    1.076928   1.821002   1.820957   0.000000
     5  Cl   2.614284   2.602673   2.602514   2.603353   0.000000
     6  Cl   2.013419   2.480414   2.480448   2.480506   4.627702
                    6
     6  Cl   0.000000
 Symmetry turned off by external request.
 Stoichiometry    CH3Cl2(1-)
 Framework group  C1[X(CH3Cl2)]
 Deg. of freedom    12
 Full point group                 C1      NOp   1
 Rotational constants (GHZ):         151.2257910           1.3403967           1.3403962
 Standard basis: 6-311+G(d,p) (5D, 7F)
   100 basis functions,   166 primitive gaussians,   103 cartesian basis functions
    22 alpha electrons       22 beta electrons
       nuclear repulsion energy       111.4676976751 Hartrees.
 NAtoms=    6 NActive=    6 NUniq=    6 SFac= 1.00D+00 NAtFMM=   60 NAOKFM=F Big=F
 Integral buffers will be    131072 words long.
 Raffenetti 2 integral format.
 Two-electron integral symmetry is turned off.
 Nuclear repulsion after empirical dispersion term =      111.4676849008 Hartrees.
 One-electron integrals computed using PRISM.
 NBasis=   100 RedAO= T EigKep=  5.22D-04  NBF=   100
 NBsUse=   100 1.00D-06 EigRej= -1.00D+00 NBFU=   100
 Initial guess from the checkpoint file:  "CH3Cl-Cl-irc.chk"
 B after Tr=    -0.000582    0.000001   -0.000001
         Rot=    1.000000    0.000046    0.000000    0.000000 Ang=   0.01 deg.
 ExpMin= 4.38D-02 ExpMax= 1.06D+05 ExpMxC= 3.62D+03 IAcc=3 IRadAn=         5 AccDes= 0.00D+00
 Harris functional with IExCor= 1009 and IRadAn=       5 diagonalized for initial guess.
 HarFok:  IExCor= 1009 AccDes= 0.00D+00 IRadAn=         5 IDoV= 1 UseB2=F ITyADJ=14
 ICtDFT=  3500011 ScaDFX=  1.000000  1.000000  1.000000  1.000000
 FoFCou: FMM=F IPFlag=           0 FMFlag=      100000 FMFlg1=           0
         NFxFlg=           0 DoJE=T BraDBF=F KetDBF=T FulRan=T
         wScrn=  0.000000 ICntrl=       500 IOpCl=  0 I1Cent=   200000004 NGrid=           0
         NMat0=    1 NMatS0=      1 NMatT0=    0 NMatD0=    1 NMtDS0=    0 NMtDT0=    0
 Symmetry not used in FoFCou.
 Keep R1 ints in memory in canonical form, NReq=27595042.
 Requested convergence on RMS density matrix=1.00D-08 within 128 cycles.
 Requested convergence on MAX density matrix=1.00D-06.
 Requested convergence on             energy=1.00D-06.
 No special actions if energy rises.
 SCF Done:  E(RM062X) =  -960.368011157     A.U. after   10 cycles
            NFock= 10  Conv=0.59D-08     -V/T= 2.0022
 DoSCS=F DFT=T ScalE2(SS,OS)=  1.000000  1.000000
 Range of M.O.s used for correlation:     1   100
 NBasis=   100 NAE=    22 NBE=    22 NFC=     0 NFV=     0
 NROrb=    100 NOA=    22 NOB=    22 NVA=    78 NVB=    78

 **** Warning!!: The largest alpha MO coefficient is  0.21402813D+02

 Symmetrizing basis deriv contribution to polar:
 IMax=3 JMax=2 DiffMx= 0.00D+00
 Calling FoFJK, ICntrl=      2127 FMM=F ISym2X=0 I1Cent= 0 IOpClX= 0 NMat=1 NMatS=1 NMatT=0.
 -------------------------------------------------------------------
 Center     Atomic                   Forces (Hartrees/Bohr)
 Number     Number              X              Y              Z
 -------------------------------------------------------------------
      1        6          -0.028720984    0.000024284   -0.000004707
      2        1          -0.000663423   -0.000222954   -0.000339643
      3        1          -0.000667777    0.000401409   -0.000023399
      4        1          -0.000665186   -0.000179569    0.000359441
      5       17           0.015495691   -0.000013684    0.000012547
      6       17           0.015221679   -0.000009485   -0.000004239
 -------------------------------------------------------------------
 Cartesian Forces:  Max     0.028720984 RMS     0.008493555
 IRC-IRC-IRC-IRC-IRC-IRC-IRC-IRC-IRC-IRC-IRC-IRC-IRC-IRC-IRC-IRC-IRC-IRC
 Reaction path inflection point has been passed.
   Previous lowest Hessian eigenvalue=   -0.0012868535
   Current lowest Hessian eigenvalue =    0.0003589368
 Pt 10 Step number   1 out of a maximum of  20
 Point Number:  10          Path Number:   1
   CHANGE IN THE REACTION COORDINATE =    0.18217
   NET REACTION COORDINATE UP TO THIS POINT =    1.82139
  # OF POINTS ALONG THE PATH =  10
  # OF STEPS =   1

 Calculating another point on the path.
 IRC-IRC-IRC-IRC-IRC-IRC-IRC-IRC-IRC-IRC-IRC-IRC-IRC-IRC-IRC-IRC-IRC-IRC
                          Input orientation:                          
 ---------------------------------------------------------------------
 Center     Atomic      Atomic             Coordinates (Angstroms)
 Number     Number       Type             X           Y           Z
 ---------------------------------------------------------------------
      1          6           0       -0.280789    0.000259   -0.000415
      2          1           0       -0.029328    0.593865    0.862966
      3          1           0       -0.029261   -1.044216    0.081860
      4          1           0       -0.029667    0.451267   -0.946270
      5         17           0        2.363379   -0.000057    0.000114
      6         17           0       -2.264479   -0.000058    0.000070
 ---------------------------------------------------------------------
                    Distance matrix (angstroms):
                    1          2          3          4          5
     1  C    0.000000
     2  H    1.077510   0.000000
     3  H    1.077480   1.814783   0.000000
     4  H    1.077549   1.814847   1.814806   0.000000
     5  Cl   2.644168   2.611954   2.611834   2.612663   0.000000
     6  Cl   1.983690   2.468449   2.468432   2.468529   4.627858
                    6
     6  Cl   0.000000
 Symmetry turned off by external request.
 Stoichiometry    CH3Cl2(1-)
 Framework group  C1[X(CH3Cl2)]
 Deg. of freedom    12
 Full point group                 C1      NOp   1
 Rotational constants (GHZ):         152.2537850           1.3396588           1.3396583
 Standard basis: 6-311+G(d,p) (5D, 7F)
   100 basis functions,   166 primitive gaussians,   103 cartesian basis functions
    22 alpha electrons       22 beta electrons
       nuclear repulsion energy       111.6487586896 Hartrees.
 NAtoms=    6 NActive=    6 NUniq=    6 SFac= 1.00D+00 NAtFMM=   60 NAOKFM=F Big=F
 Integral buffers will be    131072 words long.
 Raffenetti 2 integral format.
 Two-electron integral symmetry is turned off.
 Nuclear repulsion after empirical dispersion term =      111.6487458986 Hartrees.
 One-electron integrals computed using PRISM.
 NBasis=   100 RedAO= T EigKep=  5.04D-04  NBF=   100
 NBsUse=   100 1.00D-06 EigRej= -1.00D+00 NBFU=   100
 Initial guess from the checkpoint file:  "CH3Cl-Cl-irc.chk"
 B after Tr=    -0.000656    0.000001   -0.000001
         Rot=    1.000000    0.000040    0.000000    0.000000 Ang=   0.00 deg.
 ExpMin= 4.38D-02 ExpMax= 1.06D+05 ExpMxC= 3.62D+03 IAcc=3 IRadAn=         5 AccDes= 0.00D+00
 Harris functional with IExCor= 1009 and IRadAn=       5 diagonalized for initial guess.
 HarFok:  IExCor= 1009 AccDes= 0.00D+00 IRadAn=         5 IDoV= 1 UseB2=F ITyADJ=14
 ICtDFT=  3500011 ScaDFX=  1.000000  1.000000  1.000000  1.000000
 FoFCou: FMM=F IPFlag=           0 FMFlag=      100000 FMFlg1=           0
         NFxFlg=           0 DoJE=T BraDBF=F KetDBF=T FulRan=T
         wScrn=  0.000000 ICntrl=       500 IOpCl=  0 I1Cent=   200000004 NGrid=           0
         NMat0=    1 NMatS0=      1 NMatT0=    0 NMatD0=    1 NMtDS0=    0 NMtDT0=    0
 Symmetry not used in FoFCou.
 Keep R1 ints in memory in canonical form, NReq=27595042.
 Requested convergence on RMS density matrix=1.00D-08 within 128 cycles.
 Requested convergence on MAX density matrix=1.00D-06.
 Requested convergence on             energy=1.00D-06.
 No special actions if energy rises.
 SCF Done:  E(RM062X) =  -960.369653869     A.U. after   10 cycles
            NFock= 10  Conv=0.50D-08     -V/T= 2.0022
 DoSCS=F DFT=T ScalE2(SS,OS)=  1.000000  1.000000
 Range of M.O.s used for correlation:     1   100
 NBasis=   100 NAE=    22 NBE=    22 NFC=     0 NFV=     0
 NROrb=    100 NOA=    22 NOB=    22 NVA=    78 NVB=    78

 **** Warning!!: The largest alpha MO coefficient is  0.21612862D+02

 Symmetrizing basis deriv contribution to polar:
 IMax=3 JMax=2 DiffMx= 0.00D+00
 Calling FoFJK, ICntrl=      2127 FMM=F ISym2X=0 I1Cent= 0 IOpClX= 0 NMat=1 NMatS=1 NMatT=0.
 -------------------------------------------------------------------
 Center     Atomic                   Forces (Hartrees/Bohr)
 Number     Number              X              Y              Z
 -------------------------------------------------------------------
      1        6          -0.027548862    0.000019804   -0.000005199
      2        1          -0.000733616   -0.000203087   -0.000308278
      3        1          -0.000737152    0.000367249   -0.000022694
      4        1          -0.000736508   -0.000162151    0.000326465
      5       17           0.015481540   -0.000015167    0.000012914
      6       17           0.014274599   -0.000006648   -0.000003207
 -------------------------------------------------------------------
 Cartesian Forces:  Max     0.027548862 RMS     0.008179960
 IRC-IRC-IRC-IRC-IRC-IRC-IRC-IRC-IRC-IRC-IRC-IRC-IRC-IRC-IRC-IRC-IRC-IRC
 Pt 11 Step number   1 out of a maximum of  20
 Point Number:  11          Path Number:   1
   CHANGE IN THE REACTION COORDINATE =    0.18217
   NET REACTION COORDINATE UP TO THIS POINT =    2.00356
  # OF POINTS ALONG THE PATH =  11
  # OF STEPS =   1

 Calculating another point on the path.
 IRC-IRC-IRC-IRC-IRC-IRC-IRC-IRC-IRC-IRC-IRC-IRC-IRC-IRC-IRC-IRC-IRC-IRC
                          Input orientation:                          
 ---------------------------------------------------------------------
 Center     Atomic      Atomic             Coordinates (Angstroms)
 Number     Number       Type             X           Y           Z
 ---------------------------------------------------------------------
      1          6           0       -0.305856    0.000276   -0.000422
      2          1           0       -0.037373    0.591903    0.859967
      3          1           0       -0.037345   -1.040630    0.081645
      4          1           0       -0.037747    0.449678   -0.943089
      5         17           0        2.368292   -0.000062    0.000119
      6         17           0       -2.260093   -0.000060    0.000069
 ---------------------------------------------------------------------
                    Distance matrix (angstroms):
                    1          2          3          4          5
     1  C    0.000000
     2  H    1.078135   0.000000
     3  H    1.078109   1.808576   0.000000
     4  H    1.078177   1.808656   1.808618   0.000000
     5  Cl   2.674149   2.622401   2.622312   2.623153   0.000000
     6  Cl   1.954236   2.455673   2.455616   2.455734   4.628385
                    6
     6  Cl   0.000000
 Symmetry turned off by external request.
 Stoichiometry    CH3Cl2(1-)
 Framework group  C1[X(CH3Cl2)]
 Deg. of freedom    12
 Full point group                 C1      NOp   1
 Rotational constants (GHZ):         153.2986236           1.3386450           1.3386444
 Standard basis: 6-311+G(d,p) (5D, 7F)
   100 basis functions,   166 primitive gaussians,   103 cartesian basis functions
    22 alpha electrons       22 beta electrons
       nuclear repulsion energy       111.8398152899 Hartrees.
 NAtoms=    6 NActive=    6 NUniq=    6 SFac= 1.00D+00 NAtFMM=   60 NAOKFM=F Big=F
 Integral buffers will be    131072 words long.
 Raffenetti 2 integral format.
 Two-electron integral symmetry is turned off.
 Nuclear repulsion after empirical dispersion term =      111.8398024696 Hartrees.
 One-electron integrals computed using PRISM.
 NBasis=   100 RedAO= T EigKep=  4.86D-04  NBF=   100
 NBsUse=   100 1.00D-06 EigRej= -1.00D+00 NBFU=   100
 Initial guess from the checkpoint file:  "CH3Cl-Cl-irc.chk"
 B after Tr=    -0.000726    0.000001   -0.000001
         Rot=    1.000000    0.000034    0.000000    0.000000 Ang=   0.00 deg.
 ExpMin= 4.38D-02 ExpMax= 1.06D+05 ExpMxC= 3.62D+03 IAcc=3 IRadAn=         5 AccDes= 0.00D+00
 Harris functional with IExCor= 1009 and IRadAn=       5 diagonalized for initial guess.
 HarFok:  IExCor= 1009 AccDes= 0.00D+00 IRadAn=         5 IDoV= 1 UseB2=F ITyADJ=14
 ICtDFT=  3500011 ScaDFX=  1.000000  1.000000  1.000000  1.000000
 FoFCou: FMM=F IPFlag=           0 FMFlag=      100000 FMFlg1=           0
         NFxFlg=           0 DoJE=T BraDBF=F KetDBF=T FulRan=T
         wScrn=  0.000000 ICntrl=       500 IOpCl=  0 I1Cent=   200000004 NGrid=           0
         NMat0=    1 NMatS0=      1 NMatT0=    0 NMatD0=    1 NMtDS0=    0 NMtDT0=    0
 Symmetry not used in FoFCou.
 Keep R1 ints in memory in canonical form, NReq=27595042.
 Requested convergence on RMS density matrix=1.00D-08 within 128 cycles.
 Requested convergence on MAX density matrix=1.00D-06.
 Requested convergence on             energy=1.00D-06.
 No special actions if energy rises.
 SCF Done:  E(RM062X) =  -960.371211012     A.U. after   10 cycles
            NFock= 10  Conv=0.42D-08     -V/T= 2.0022
 DoSCS=F DFT=T ScalE2(SS,OS)=  1.000000  1.000000
 Range of M.O.s used for correlation:     1   100
 NBasis=   100 NAE=    22 NBE=    22 NFC=     0 NFV=     0
 NROrb=    100 NOA=    22 NOB=    22 NVA=    78 NVB=    78

 **** Warning!!: The largest alpha MO coefficient is  0.21777390D+02

 Symmetrizing basis deriv contribution to polar:
 IMax=3 JMax=2 DiffMx= 0.00D+00
 Calling FoFJK, ICntrl=      2127 FMM=F ISym2X=0 I1Cent= 0 IOpClX= 0 NMat=1 NMatS=1 NMatT=0.
 -------------------------------------------------------------------
 Center     Atomic                   Forces (Hartrees/Bohr)
 Number     Number              X              Y              Z
 -------------------------------------------------------------------
      1        6          -0.025501570    0.000014130   -0.000005945
      2        1          -0.000773292   -0.000178007   -0.000270845
      3        1          -0.000773543    0.000326525   -0.000021134
      4        1          -0.000776144   -0.000141761    0.000287387
      5       17           0.015247348   -0.000016505    0.000012581
      6       17           0.012577200   -0.000004382   -0.000002044
 -------------------------------------------------------------------
 Cartesian Forces:  Max     0.025501570 RMS     0.007612533
 IRC-IRC-IRC-IRC-IRC-IRC-IRC-IRC-IRC-IRC-IRC-IRC-IRC-IRC-IRC-IRC-IRC-IRC
 Pt 12 Step number   1 out of a maximum of  20
 Point Number:  12          Path Number:   1
   CHANGE IN THE REACTION COORDINATE =    0.18217
   NET REACTION COORDINATE UP TO THIS POINT =    2.18573
  # OF POINTS ALONG THE PATH =  12
  # OF STEPS =   1

 Calculating another point on the path.
[...]
      6         17           0       -2.563941   -0.000236   -0.000085
 ---------------------------------------------------------------------
                    Distance matrix (angstroms):
                    1          2          3          4          5
     1  C    0.000000
     2  H    1.082185   0.000000
     3  H    1.082915   1.779493   0.000000
     4  H    1.083602   1.780075   1.779760   0.000000
     5  Cl   1.825609   2.396695   2.399361   2.399817   0.000000
     6  Cl   3.101064   2.946176   2.941576   2.945491   4.926671
                    6
     6  Cl   0.000000
 Symmetry turned off by external request.
 Stoichiometry    CH3Cl2(1-)
 Framework group  C1[X(CH3Cl2)]
 Deg. of freedom    12
 Full point group                 C1      NOp   1
 Rotational constants (GHZ):         158.3040158           1.1745776           1.1745743
 Standard basis: 6-311+G(d,p) (5D, 7F)
   100 basis functions,   166 primitive gaussians,   103 cartesian basis functions
    22 alpha electrons       22 beta electrons
       nuclear repulsion energy       108.1187085506 Hartrees.
 NAtoms=    6 NActive=    6 NUniq=    6 SFac= 1.00D+00 NAtFMM=   60 NAOKFM=F Big=F
 Integral buffers will be    131072 words long.
 Raffenetti 2 integral format.
 Two-electron integral symmetry is turned off.
 Nuclear repulsion after empirical dispersion term =      108.1186877294 Hartrees.
 One-electron integrals computed using PRISM.
 NBasis=   100 RedAO= T EigKep=  5.07D-04  NBF=   100
 NBsUse=   100 1.00D-06 EigRej= -1.00D+00 NBFU=   100
 Initial guess from the checkpoint file:  "CH3Cl-Cl-irc.chk"
 B after Tr=     0.000777   -0.000054   -0.000050
         Rot=    0.999999    0.001572    0.000026    0.000015 Ang=   0.18 deg.
 ExpMin= 4.38D-02 ExpMax= 1.06D+05 ExpMxC= 3.62D+03 IAcc=3 IRadAn=         5 AccDes= 0.00D+00
 Harris functional with IExCor= 1009 and IRadAn=       5 diagonalized for initial guess.
 HarFok:  IExCor= 1009 AccDes= 0.00D+00 IRadAn=         5 IDoV= 1 UseB2=F ITyADJ=14
 ICtDFT=  3500011 ScaDFX=  1.000000  1.000000  1.000000  1.000000
 FoFCou: FMM=F IPFlag=           0 FMFlag=      100000 FMFlg1=           0
         NFxFlg=           0 DoJE=T BraDBF=F KetDBF=T FulRan=T
         wScrn=  0.000000 ICntrl=       500 IOpCl=  0 I1Cent=   200000004 NGrid=           0
         NMat0=    1 NMatS0=      1 NMatT0=    0 NMatD0=    1 NMtDS0=    0 NMtDT0=    0
 Symmetry not used in FoFCou.
 Keep R1 ints in memory in canonical form, NReq=27595042.
 Requested convergence on RMS density matrix=1.00D-08 within 128 cycles.
 Requested convergence on MAX density matrix=1.00D-06.
 Requested convergence on             energy=1.00D-06.
 No special actions if energy rises.
 SCF Done:  E(RM062X) =  -960.378495827     A.U. after    9 cycles
            NFock=  9  Conv=0.38D-08     -V/T= 2.0022
 DoSCS=F DFT=T ScalE2(SS,OS)=  1.000000  1.000000
 Range of M.O.s used for correlation:     1   100
 NBasis=   100 NAE=    22 NBE=    22 NFC=     0 NFV=     0
 NROrb=    100 NOA=    22 NOB=    22 NVA=    78 NVB=    78

 **** Warning!!: The largest alpha MO coefficient is  0.19915114D+02

 Symmetrizing basis deriv contribution to polar:
 IMax=3 JMax=2 DiffMx= 0.00D+00
 Calling FoFJK, ICntrl=      2127 FMM=F ISym2X=0 I1Cent= 0 IOpClX= 0 NMat=1 NMatS=1 NMatT=0.
 -------------------------------------------------------------------
 Center     Atomic                   Forces (Hartrees/Bohr)
 Number     Number              X              Y              Z
 -------------------------------------------------------------------
      1        6          -0.000689714   -0.000040109   -0.000669837
      2        1          -0.000335676    0.000140394    0.000202660
      3        1           0.000040454    0.000153283    0.000053960
      4        1           0.000190745   -0.000187806    0.000527400
      5       17           0.001206674   -0.000070095   -0.000099853
      6       17          -0.000412483    0.000004333   -0.000014330
 -------------------------------------------------------------------
 Cartesian Forces:  Max     0.001206674 RMS     0.000416241
 IRC-IRC-IRC-IRC-IRC-IRC-IRC-IRC-IRC-IRC-IRC-IRC-IRC-IRC-IRC-IRC-IRC-IRC
 Pt 61 Step number   1 out of a maximum of  20
 Point Number:  30          Path Number:   2
   CHANGE IN THE REACTION COORDINATE =    0.17966
   NET REACTION COORDINATE UP TO THIS POINT =    5.42683
  # OF POINTS ALONG THE PATH =  61
  # OF STEPS =   1

 Calculating another point on the path.
 IRC-IRC-IRC-IRC-IRC-IRC-IRC-IRC-IRC-IRC-IRC-IRC-IRC-IRC-IRC-IRC-IRC-IRC
                          Input orientation:                          
 ---------------------------------------------------------------------
 Center     Atomic      Atomic             Coordinates (Angstroms)
 Number     Number       Type             X           Y           Z
 ---------------------------------------------------------------------
      1          6           0        0.542620    0.003082    0.001277
      2          1           0        0.198367    0.604171    0.835346
      3          1           0        0.200767   -1.018395    0.104450
      4          1           0        0.205908    0.425837   -0.935345
      5         17           0        2.371746   -0.001032    0.000312
      6         17           0       -2.575391   -0.000360   -0.000878
 ---------------------------------------------------------------------
                    Distance matrix (angstroms):
                    1          2          3          4          5
     1  C    0.000000
     2  H    1.084200   0.000000
     3  H    1.082092   1.779588   0.000000
     4  H    1.081369   1.779664   1.779608   0.000000
     5  Cl   1.829131   2.405646   2.399796   2.397608   0.000000
     6  Cl   3.118013   2.959469   2.958807   2.964876   4.947137
                    6
     6  Cl   0.000000
 Symmetry turned off by external request.
 Stoichiometry    CH3Cl2(1-)
 Framework group  C1[X(CH3Cl2)]
 Deg. of freedom    12
 Full point group                 C1      NOp   1
 Rotational constants (GHZ):         158.3253181           1.1647522           1.1647519
 Standard basis: 6-311+G(d,p) (5D, 7F)
   100 basis functions,   166 primitive gaussians,   103 cartesian basis functions
    22 alpha electrons       22 beta electrons
       nuclear repulsion energy       107.7789804896 Hartrees.
 NAtoms=    6 NActive=    6 NUniq=    6 SFac= 1.00D+00 NAtFMM=   60 NAOKFM=F Big=F
 Integral buffers will be    131072 words long.
 Raffenetti 2 integral format.
 Two-electron integral symmetry is turned off.
 Nuclear repulsion after empirical dispersion term =      107.7789590432 Hartrees.
 One-electron integrals computed using PRISM.
 NBasis=   100 RedAO= T EigKep=  5.18D-04  NBF=   100
 NBsUse=   100 1.00D-06 EigRej= -1.00D+00 NBFU=   100
 Initial guess from the checkpoint file:  "CH3Cl-Cl-irc.chk"
 B after Tr=     0.000466    0.000145    0.000228
         Rot=    0.999994    0.003572    0.000093    0.000024 Ang=   0.41 deg.
 ExpMin= 4.38D-02 ExpMax= 1.06D+05 ExpMxC= 3.62D+03 IAcc=3 IRadAn=         5 AccDes= 0.00D+00
 Harris functional with IExCor= 1009 and IRadAn=       5 diagonalized for initial guess.
 HarFok:  IExCor= 1009 AccDes= 0.00D+00 IRadAn=         5 IDoV= 1 UseB2=F ITyADJ=14
 ICtDFT=  3500011 ScaDFX=  1.000000  1.000000  1.000000  1.000000
 FoFCou: FMM=F IPFlag=           0 FMFlag=      100000 FMFlg1=           0
         NFxFlg=           0 DoJE=T BraDBF=F KetDBF=T FulRan=T
         wScrn=  0.000000 ICntrl=       500 IOpCl=  0 I1Cent=   200000004 NGrid=           0
         NMat0=    1 NMatS0=      1 NMatT0=    0 NMatD0=    1 NMtDS0=    0 NMtDT0=    0
 Symmetry not used in FoFCou.
 Keep R1 ints in memory in canonical form, NReq=27595042.
 Requested convergence on RMS density matrix=1.00D-08 within 128 cycles.
 Requested convergence on MAX density matrix=1.00D-06.
 Requested convergence on             energy=1.00D-06.
 No special actions if energy rises.
 SCF Done:  E(RM062X) =  -960.378500741     A.U. after    9 cycles
            NFock=  9  Conv=0.37D-08     -V/T= 2.0022
 DoSCS=F DFT=T ScalE2(SS,OS)=  1.000000  1.000000
 Range of M.O.s used for correlation:     1   100
 NBasis=   100 NAE=    22 NBE=    22 NFC=     0 NFV=     0
 NROrb=    100 NOA=    22 NOB=    22 NVA=    78 NVB=    78

 **** Warning!!: The largest alpha MO coefficient is  0.19715210D+02

 Symmetrizing basis deriv contribution to polar:
 IMax=3 JMax=2 DiffMx= 0.00D+00
 Calling FoFJK, ICntrl=      2127 FMM=F ISym2X=0 I1Cent= 0 IOpClX= 0 NMat=1 NMatS=1 NMatT=0.
 -------------------------------------------------------------------
 Center     Atomic                   Forces (Hartrees/Bohr)
 Number     Number              X              Y              Z
 -------------------------------------------------------------------
      1        6           0.000399615    0.000456438    0.001231033
      2        1           0.000604384   -0.000445940   -0.000658639
      3        1          -0.000266422   -0.000361546   -0.000096291
      4        1          -0.000589910    0.000214737   -0.000770931
      5       17          -0.000183059    0.000120925    0.000300168
      6       17           0.000035393    0.000015386   -0.000005340
 -------------------------------------------------------------------
 Cartesian Forces:  Max     0.001231033 RMS     0.000484228
 IRC-IRC-IRC-IRC-IRC-IRC-IRC-IRC-IRC-IRC-IRC-IRC-IRC-IRC-IRC-IRC-IRC-IRC
 Pt 62 Step number   1 out of a maximum of  20
 Point Number:  31          Path Number:   2
   CHANGE IN THE REACTION COORDINATE =    0.17220
   NET REACTION COORDINATE UP TO THIS POINT =    5.59904
  # OF POINTS ALONG THE PATH =  62
  # OF STEPS =   1

 Calculating another point on the path.
 PES minimum detected within a second-order step.
 Calculation of REVERSE path complete.
 Reaction path calculation complete.
 
 Energies reported relative to the TS energy of        -960.357215
 --------------------------------------------------------------------------
    Summary of reaction path following
 --------------------------------------------------------------------------
                        Energy    RxCoord
   1                   -0.02129  -5.59904
   2                   -0.02128  -5.42683
   3                   -0.02126  -5.24717
   4                   -0.02121  -5.06728
   5                   -0.02114  -4.88633
   6                   -0.02104  -4.71052
   7                   -0.02093  -4.53364
   8                   -0.02079  -4.35239
   9                   -0.02061  -4.17036
  10                   -0.02039  -3.98824
  11                   -0.02014  -3.80649
  12                   -0.01976  -3.64050
  13                   -0.01958  -3.45900
  14                   -0.01922  -3.27724
  15                   -0.01880  -3.09548
  16                   -0.01829  -2.91400
  17                   -0.01758  -2.73215
  18                   -0.01662  -2.55005
  19                   -0.01541  -2.36790
  20                   -0.01400  -2.18573
  21                   -0.01244  -2.00356
  22                   -0.01080  -1.82139
  23                   -0.00911  -1.63922
  24                   -0.00745  -1.45706
  25                   -0.00585  -1.27490
  26                   -0.00439  -1.09274
  27                   -0.00309  -0.91060
  28                   -0.00199  -0.72847
  29                   -0.00112  -0.54636
  30                   -0.00050  -0.36430
  31                   -0.00013  -0.18221
  32                    0.00000   0.00000
  33                   -0.00013   0.18221
  34                   -0.00050   0.36430
  35                   -0.00112   0.54636
  36                   -0.00199   0.72847
  37                   -0.00309   0.91060
  38                   -0.00439   1.09274
  39                   -0.00585   1.27490
  40                   -0.00745   1.45706
  41                   -0.00911   1.63922
  42                   -0.01080   1.82139
  43                   -0.01244   2.00356
  44                   -0.01400   2.18573
  45                   -0.01541   2.36790
  46                   -0.01662   2.55005
  47                   -0.01758   2.73215
  48                   -0.01829   2.91400
  49                   -0.01880   3.09548
  50                   -0.01922   3.27724
  51                   -0.01958   3.45900
  52                   -0.01976   3.64050
  53                   -0.02014   3.80649
  54                   -0.02039   3.98824
  55                   -0.02061   4.17036
  56                   -0.02079   4.35238
  57                   -0.02092   4.53353
  58                   -0.02104   4.71021
  59                   -0.02114   4.88625
  60                   -0.02121   5.06730
  61                   -0.02126   5.24702
  62                   -0.02128   5.42662
  63                   -0.02129   5.59892
 --------------------------------------------------------------------------
 
 Total number of points:                   62
 Total number of gradient calculations:    63
 Total number of Hessian calculations:      1
 IRC-IRC-IRC-IRC-IRC-IRC-IRC-IRC-IRC-IRC-IRC-IRC-IRC-IRC-IRC-IRC-IRC-IRC
                          Input orientation:                          
 ---------------------------------------------------------------------
 Center     Atomic      Atomic             Coordinates (Angstroms)
 Number     Number       Type             X           Y           Z
 ---------------------------------------------------------------------
      1          6           0        0.542620    0.003082    0.001277
      2          1           0        0.198367    0.604171    0.835346
      3          1           0        0.200767   -1.018395    0.104450
      4          1           0        0.205908    0.425837   -0.935345
      5         17           0        2.371746   -0.001032    0.000312
      6         17           0       -2.575391   -0.000360   -0.000878
 ---------------------------------------------------------------------
                    Distance matrix (angstroms):
                    1          2          3          4          5
     1  C    0.000000
     2  H    1.084200   0.000000
     3  H    1.082092   1.779588   0.000000
     4  H    1.081369   1.779664   1.779608   0.000000
     5  Cl   1.829131   2.405646   2.399796   2.397608   0.000000
     6  Cl   3.118013   2.959469   2.958807   2.964876   4.947137
                    6
     6  Cl   0.000000
 Symmetry turned off by external request.
 Stoichiometry    CH3Cl2(1-)
 Framework group  C1[X(CH3Cl2)]
 Deg. of freedom    12
 Full point group                 C1      NOp   1
 Rotational constants (GHZ):         158.3253181           1.1647522           1.1647519

 **********************************************************************

            Population analysis using the SCF Density.

 **********************************************************************

 Alpha  occ. eigenvalues -- -102.53375-102.36514 -10.44910  -9.67601  -9.50619
 Alpha  occ. eigenvalues --   -7.40064  -7.39480  -7.39480  -7.22730  -7.22718
 Alpha  occ. eigenvalues --   -7.22718  -0.81245  -0.62807  -0.59033  -0.37301
 Alpha  occ. eigenvalues --   -0.37219  -0.33324  -0.23646  -0.23640  -0.10560
 Alpha  occ. eigenvalues --   -0.10461  -0.10460
 Alpha virt. eigenvalues --    0.12777   0.16044   0.17379   0.17386   0.21609
 Alpha virt. eigenvalues --    0.21612   0.21977   0.23086   0.25991   0.25995
 Alpha virt. eigenvalues --    0.26697   0.31648   0.31690   0.33425   0.36032
 Alpha virt. eigenvalues --    0.40558   0.55608   0.55613   0.57688   0.61337
 Alpha virt. eigenvalues --    0.61346   0.66772   0.71715   0.71719   0.75351
 Alpha virt. eigenvalues --    0.77457   0.77552   0.82511   1.01165   1.01636
 Alpha virt. eigenvalues --    1.01730   1.07917   1.07921   1.09527   1.22681
 Alpha virt. eigenvalues --    1.23310   1.23311   1.23732   1.23740   1.27798
 Alpha virt. eigenvalues --    1.32867   1.33009   1.33181   1.62964   1.71563
 Alpha virt. eigenvalues --    1.71613   1.88523   1.88531   1.92063   2.14707
 Alpha virt. eigenvalues --    2.29050   2.29094   2.48572   2.48643   2.54351
 Alpha virt. eigenvalues --    2.55941   2.55956   2.60488   2.62894   2.65870
 Alpha virt. eigenvalues --    2.65904   2.70562   2.70606   3.07842   3.37394
 Alpha virt. eigenvalues --    3.90920   3.91461  10.03144  10.09095  24.10624
 Alpha virt. eigenvalues --   26.07037  26.07054  26.17347  26.17356  26.29185
 Alpha virt. eigenvalues --   26.58059 216.11492 216.17235
          Condensed to atoms (all electrons):
               1          2          3          4          5          6
     1  C    5.367990   0.398585   0.398643   0.398847   0.121788   0.037332
     2  H    0.398585   0.489419  -0.020453  -0.020425  -0.052182  -0.010696
     3  H    0.398643  -0.020453   0.489441  -0.020133  -0.052682  -0.010802
     4  H    0.398847  -0.020425  -0.020133   0.490195  -0.053290  -0.010701
     5  Cl   0.121788  -0.052182  -0.052682  -0.053290  17.019019   0.009496
     6  Cl   0.037332  -0.010696  -0.010802  -0.010701   0.009496  17.917279
 Mulliken charges:
               1
     1  C   -0.723186
     2  H    0.215752
     3  H    0.215986
     4  H    0.215506
     5  Cl   0.007851
     6  Cl  -0.931909
 Sum of Mulliken charges =  -1.00000
 Mulliken charges with hydrogens summed into heavy atoms:
               1
     1  C   -0.075942
     5  Cl   0.007851
     6  Cl  -0.931909
 APT charges:
               1
     1  C   -0.928507
     2  H    0.356760
     3  H    0.356671
     4  H    0.357385
     5  Cl  -0.182566
     6  Cl  -0.959743
 Sum of APT charges =  -1.00000
 APT charges with hydrogens summed into heavy atoms:
               1
     1  C    0.142309
     5  Cl  -0.182566
     6  Cl  -0.959743
 Electronic spatial extent (au):  <R**2>=            875.5984
 Charge=             -1.0000 electrons
 Dipole moment (field-independent basis, Debye):
    X=              8.3947    Y=              0.0066    Z=              0.0045  Tot=              8.3947
 Quadrupole moment (field-independent basis, Debye-Ang):
   XX=            -77.5594   YY=            -37.4799   ZZ=            -37.4808
   XY=             -0.0041   XZ=             -0.0224   YZ=             -0.0021
 Traceless Quadrupole moment (field-independent basis, Debye-Ang):
   XX=            -26.7194   YY=             13.3601   ZZ=             13.3592
   XY=             -0.0041   XZ=             -0.0224   YZ=             -0.0021
 Octapole moment (field-independent basis, Debye-Ang**2):
  XXX=             85.5701  YYY=             -0.9212  ZZZ=             -0.2872  XYY=              7.2437
  XXY=             -0.0062  XXZ=              0.0023  XZZ=              7.2471  YZZ=              0.9133
  YYZ=              0.2833  XYZ=             -0.0048
 Hexadecapole moment (field-independent basis, Debye-Ang**3):
 XXXX=          -1418.6160 YYYY=            -57.8245 ZZZZ=            -57.8173 XXXY=             -0.0689
 XXXZ=             -0.2731 YYYX=             -0.1338 YYYZ=             -0.0044 ZZZX=             -0.2065
 ZZZY=             -0.0028 XXYY=           -212.2821 XXZZ=           -212.2801 YYZZ=            -19.2632
 XXYZ=              0.0004 YYXZ=             -0.0053 ZZXY=              0.1602
 N-N= 1.077789590432D+02 E-N=-2.505733848726D+03  KE= 9.582412282489D+02
  Exact polarizability:       0.000       0.000       0.000       0.000       0.000       0.000
 Approx polarizability:      62.039      -0.030      36.510      -0.038       0.007      36.514

 This type of calculation cannot be archived.


 When I told the people of Northern Ireland that I was
 an atheist, a woman in the audience stood up and said,
 "Yes, but is it the God of the Catholics or the God
 of the Protestants in whom you don't believe?"
                               -- Quentin Crisp
 Job cpu time:       0 days  0 hours 11 minutes 57.3 seconds.
 Elapsed time:       0 days  0 hours  0 minutes 51.6 seconds.
 File lengths (MBytes):  RWF=     12 Int=      0 D2E=      0 Chk=      3 Scr=      1
 Normal termination of Gaussian 16 at Thu Dec 25 18:42:13 2025.
