 Entering Gaussian System, Link 0=g16
 Initial command:
 /public/software/g16/l1.exe "/tmp/Gau-69834.inp" -scrdir="/tmp/"
 Entering Link 1 = /public/software/g16/l1.exe PID=     69836.
  
 Copyright (c) 1988-2021, Gaussian, Inc.  All Rights Reserved.
  
 This is part of the Gaussian(R) 16 program.  It is based on
 the Gaussian(R) 09 system (copyright 2009, Gaussian, Inc.),
 the Gaussian(R) 03 system (copyright 2003, Gaussian, Inc.),
 the Gaussian(R) 98 system (copyright 1998, Gaussian, Inc.),
 the Gaussian(R) 94 system (copyright 1995, Gaussian, Inc.),
 the Gaussian 92(TM) system (copyright 1992, Gaussian, Inc.),
 the Gaussian 90(TM) system (copyright 1990, Gaussian, Inc.),
 the Gaussian 88(TM) system (copyright 1988, Gaussian, Inc.),
 the Gaussian 86(TM) system (copyright 1986, Carnegie Mellon
 University), and the Gaussian 82(TM) system (copyright 1983,
 Carnegie Mellon University). Gaussian is a federally registered
 trademark of Gaussian, Inc.
  
 This software contains proprietary and confidential information,
 including trade secrets, belonging to Gaussian, Inc.
  
 This software is provided under written license and may be
 used, copied, transmitted, or stored only in accord with that
 written license.
  
 The following legend is applicable only to US Government
 contracts under FAR:
  
                    RESTRICTED RIGHTS LEGEND
  
 Use, reproduction and disclosure by the US Government is
 subject to restrictions as set forth in subparagraphs (a)
 and (c) of the Commercial Computer Software - Restricted
 Rights clause in FAR 52.227-19.
  
 Gaussian, Inc.
 340 Quinnipiac St., Bldg. 40, Wallingford CT 06492
  
  
 ---------------------------------------------------------------
 Warning -- This program may not be used in any manner that
 competes with the business of Gaussian, Inc. or will provide
 assistance to any competitor of Gaussian, Inc.  The licensee
 of this program is prohibited from giving any competitor of
 Gaussian, Inc. access to this program.  By using this program,
 the user acknowledges that Gaussian, Inc. is engaged in the
 business of creating and licensing software in the field of
 computational chemistry and represents and warrants to the
 licensee that it is not a competitor of Gaussian, Inc. and that
 it will not use this program in any manner prohibited above.
 ---------------------------------------------------------------
  

 Cite this work as:
 Gaussian 16, Revision C.02,
 M. J. Frisch, G. W. Trucks, H. B. Schlegel, G. E. Scuseria, 
 M. A. Robb, J. R. Cheeseman, G. Scalmani, V. Barone, 
 G. A. Petersson, H. Nakatsuji, X. Li, M. Caricato, A. V. Marenich, 
 J. Bloino, B. G. Janesko, R. Gomperts, B. Mennucci, H. P. Hratchian, 
 J. V. Ortiz, A. F. Izmaylov, J. L. Sonnenberg, D. Williams-Young, 
 F. Ding, F. Lipparini, F. Egidi, J. Goings, B. Peng, A. Petrone, 
 T. Henderson, D. Ranasinghe, V. G. Zakrzewski, J. Gao, N. Rega, 
 G. Zheng, W. Liang, M. Hada, M. Ehara, K. Toyota, R. Fukuda, 
 J. Hasegawa, M. Ishida, T. Nakajima, Y. Honda, O. Kitao, H. Nakai, 
 T. Vreven, K. Throssell, J. A. Montgomery, Jr., J. E. Peralta, 
 F. Ogliaro, M. J. Bearpark, J. J. Heyd, E. N. Brothers, K. N. Kudin, 
 V. N. Staroverov, T. A. Keith, R. Kobayashi, J. Normand, 
 K. Raghavachari, A. P. Rendell, J. C. Burant, S. S. Iyengar, 
 J. Tomasi, M. Cossi, J. M. Millam, M. Klene, C. Adamo, R. Cammi, 
 J. W. Ochterski, R. L. Martin, K. Morokuma, O. Farkas, 
 J. B. Foresman, and D. J. Fox, Gaussian, Inc., Wallingford CT, 2019.
 
 ******************************************
 Gaussian 16:  ES64L-G16RevC.02  7-Dec-2021
                22-Jan-2026 
 ******************************************
 %nprocshared=96
 Will use up to   96 processors via shared memory.
 %mem=345GB
 %chk=s0-td.chk
 ---------------------------------------------------------------
 # td=(nstates=5) PBE1PBE/genecp scrf=(solvent=toluene) em=gd3bj
 ---------------------------------------------------------------
 1/38=1,172=1/1;
 2/12=2,17=6,18=5,40=1/2;
 3/5=7,11=9,16=1,17=8,25=1,30=1,70=2201,72=13,74=-13,124=41/1,2,3,8;
 4//1;
 5/5=2,38=5,53=13/2;
 8/6=1,10=1,108=5/1;
 9/41=5,42=1,70=2/14;
 6/7=2,8=2,9=2,10=2/1;
 99/5=1,9=1/99;
 -----
 s0-td
 -----
 Symbolic Z-matrix:
 Charge =  0 Multiplicity = 1
 Pd                   -0.18039   0.57268  -0.55755 
 N                     0.03292  -2.38939  -1.77176 
 N                     1.73591  -1.10107  -1.93531 
 N                     1.23511   3.0459   -0.03292 
 N                    -0.63435   3.34996   0.97152 
 N                    -2.15547   0.07932   0.05688 
 N                     4.25803   0.40513   1.55171 
 N                     6.20406  -0.19487   0.36088 
 N                     4.42162  -1.7292    0.56119 
 C                    -4.76919  -2.19405  -3.11989 
 H                    -4.77288  -1.10866  -2.98778 
 H                    -5.77552  -2.55847  -2.89437 
 H                    -4.56291  -2.40965  -4.17397 
 C                    -3.73188  -2.8348   -2.21112 
 H                    -3.76852  -3.92798  -2.30638 
 H                    -3.97281  -2.6019   -1.16794 
 C                    -2.32382  -2.34289  -2.51308 
 H                    -2.30089  -1.24955  -2.4645 
 H                    -2.02858  -2.63062  -3.53005 
 C                    -1.31407  -2.88253  -1.51592 
 H                    -1.5914   -2.5841   -0.50404 
 H                    -1.27028  -3.97447  -1.54586 
 C                     1.0429   -3.12081  -2.3699 
 H                     0.90526  -4.1464   -2.66961 
 C                     2.1237   -2.30801  -2.46795 
 H                     3.11194  -2.49164  -2.85437 
 C                     0.43958  -1.14115  -1.49095 
 C                     2.4349    0.112    -1.73982 
 C                     1.63577   1.0432   -1.10022 
 C                     2.17182   2.27361  -0.76131 
 C                     3.47916   2.61094  -1.08538 
 H                     3.9127    3.56655  -0.81268 
 C                     4.24985   1.65975  -1.7558 
 H                     5.2776    1.89804  -2.00436 
 C                     3.7499    0.39864  -2.08413 
 H                     4.38574  -0.3274   -2.57916 
 C                     0.01016   2.471     0.18749 
 C                     1.34082   4.25898   0.60786 
 H                     2.22815   4.86837   0.57101 
 C                     0.15621   4.45453   1.23807 
 H                    -0.1878    5.27407   1.84686 
 C                    -1.99763   3.15821   1.4475 
 H                    -2.00641   3.31816   2.53022 
 H                    -2.24034   2.11258   1.25128 
 C                    -2.98951   4.07668   0.75475 
 H                    -2.76041   5.12304   0.99512 
 H                    -2.87504   3.96119  -0.32843 
 C                    -4.42344   3.75268   1.14856 
 H                    -4.66048   2.73682   0.81282 
 H                    -4.5124    3.75124   2.24257 
 C                    -5.4191    4.73641   0.55514 
 H                    -6.44525   4.47916   0.83094 
 H                    -5.36015   4.73619  -0.53719 
 H                    -5.22509   5.757     0.902 
 C                    -3.37473   1.43065  -1.65545 
 H                    -2.47687   1.86654  -2.08385 
 C                    -4.6275    1.72921  -2.15999 
 H                    -4.69075   2.41639  -2.99853 
 C                    -5.81787   1.16789  -1.64398 
 C                    -5.71502   0.28707  -0.57455 
 H                    -6.60194  -0.17296  -0.1529 
 C                    -4.46384  -0.03267  -0.04125 
 C                    -3.27946   0.53591  -0.5824 
 C                    -2.59455  -0.7985    1.01483 
 C                    -4.01727  -0.92067   0.99676 
 C                    -4.6639   -1.8245    1.83367 
 H                    -5.747    -1.90295   1.79411 
 C                    -3.93412  -2.63847   2.69803 
 C                    -2.53614  -2.50231   2.71047 
 H                    -1.94358  -3.10963   3.38528 
 C                    -1.85063  -1.59229   1.91006 
 C                    -7.15216   1.50846  -2.30679 
 C                    -8.33014   0.82432  -1.61411 
 H                    -8.24316  -0.26566  -1.65245 
 H                    -9.26235   1.1017   -2.11531 
 H                    -8.41126   1.12645  -0.56554 
 C                    -7.39138   3.02301  -2.26469 
 H                    -7.44708   3.37634  -1.23167 
 H                    -8.33251   3.27456  -2.76562 
 H                    -6.58921   3.57284  -2.76413 
 C                    -7.12381   1.04354  -3.77005 
 H                    -6.31934   1.5284   -4.32944 
 H                    -8.07113   1.28223  -4.26584 
 H                    -6.96729  -0.03738  -3.82854 
 C                    -4.66571  -3.64142   3.59051 
 C                    -3.7078   -4.44394   4.47071 
 H                    -2.99875  -5.02414   3.87249 
 H                    -4.27765  -5.14682   5.08578 
 H                    -3.13912  -3.79645   5.14476 
 C                    -5.4467   -4.62868   2.71183 
 H                    -6.18121  -4.11442   2.08653 
 H                    -5.9819   -5.35541   3.33275 
 H                    -4.76844  -5.17548   2.04989 
 C                    -5.64499  -2.89553   4.50699 
 H                    -5.1105   -2.18792   5.14758 
 H                    -6.18375  -3.60137   5.14856 
 H                    -6.38414  -2.33286   3.93078 
 C                    -0.38105  -1.47174   1.95413 
 C                     0.45015  -2.53336   1.58357 
 H                     0.00546  -3.49674   1.35535 
 C                     1.80987  -2.33852   1.41026 
 H                     2.44218  -3.13731   1.04155 
 C                     2.37585  -1.08292   1.64471 
 C                     1.57119  -0.05396   2.13687 
 H                     2.01959   0.9118    2.33448 
 C                     0.20814  -0.24416   2.27629 
 H                    -0.42506   0.57209   2.60558 
 C                     3.76147  -0.79771   1.25518 
 C                     5.63188  -1.37774   0.13145 
 C                     5.47187   0.66453   1.0731 
 C                     6.36835  -2.35133  -0.69931 
 C                     5.76922  -3.56209  -1.05602 
 H                     4.76923  -3.77202  -0.69569 
 C                     6.44906  -4.46695  -1.85785 
 H                     5.97937  -5.40572  -2.13156 
 C                     7.73237  -4.17298  -2.30853 
 H                     8.26369  -4.88194  -2.93474 
 C                     8.33374  -2.96932  -1.95478 
 H                     9.33461  -2.73939  -2.30399 
 C                     7.65554  -2.06082  -1.15543 
 H                     8.10709  -1.11763  -0.8728 
 C                     6.02362   2.01223   1.3132 
 C                     7.27346   2.36579   0.80296 
 H                     7.84017   1.62374   0.25373 
 C                     7.7683    3.64789   0.99464 
 H                     8.73983   3.91727   0.59443 
 C                     7.0207    4.58636   1.69857 
 H                     7.40886   5.58847   1.84782 
 C                     5.77548   4.23715   2.21339 
 H                     5.19274   4.96594   2.76694 
 C                     5.27776   2.95707   2.02172 
 H                     4.30789   2.66852   2.40836 
 
 Stoichiometry    C61H62N8Pd
 Framework group  C1[X(C61H62N8Pd)]
 Deg. of freedom   390
 Full point group                 C1      NOp   1
 Largest Abelian subgroup         C1      NOp   1
 Largest concise Abelian subgroup C1      NOp   1
                         Standard orientation:                         
 ---------------------------------------------------------------------
 Center     Atomic      Atomic             Coordinates (Angstroms)
 Number     Number       Type             X           Y           Z
 ---------------------------------------------------------------------
      1         46           0       -0.180394    0.572682   -0.557549
      2          7           0        0.032922   -2.389388   -1.771757
      3          7           0        1.735911   -1.101069   -1.935314
      4          7           0        1.235110    3.045904   -0.032920
      5          7           0       -0.634349    3.349961    0.971518
      6          7           0       -2.155474    0.079322    0.056884
      7          7           0        4.258027    0.405134    1.551713
      8          7           0        6.204062   -0.194866    0.360881
      9          7           0        4.421624   -1.729199    0.561191
     10          6           0       -4.769187   -2.194051   -3.119890
     11          1           0       -4.772875   -1.108664   -2.987778
     12          1           0       -5.775517   -2.558472   -2.894373
     13          1           0       -4.562910   -2.409650   -4.173971
     14          6           0       -3.731875   -2.834795   -2.211119
     15          1           0       -3.768520   -3.927978   -2.306382
     16          1           0       -3.972806   -2.601903   -1.167937
     17          6           0       -2.323824   -2.342893   -2.513078
     18          1           0       -2.300888   -1.249553   -2.464504
     19          1           0       -2.028584   -2.630621   -3.530052
     20          6           0       -1.314072   -2.882533   -1.515922
     21          1           0       -1.591404   -2.584097   -0.504040
     22          1           0       -1.270279   -3.974468   -1.545863
     23          6           0        1.042898   -3.120810   -2.369900
     24          1           0        0.905260   -4.146398   -2.669614
     25          6           0        2.123701   -2.308006   -2.467952
     26          1           0        3.111943   -2.491639   -2.854370
     27          6           0        0.439577   -1.141150   -1.490949
     28          6           0        2.434904    0.111996   -1.739823
     29          6           0        1.635765    1.043201   -1.100222
     30          6           0        2.171815    2.273613   -0.761308
     31          6           0        3.479160    2.610942   -1.085381
     32          1           0        3.912704    3.566548   -0.812677
     33          6           0        4.249854    1.659751   -1.755800
     34          1           0        5.277600    1.898037   -2.004364
     35          6           0        3.749899    0.398636   -2.084132
     36          1           0        4.385742   -0.327399   -2.579164
     37          6           0        0.010163    2.471001    0.187490
     38          6           0        1.340823    4.258981    0.607861
     39          1           0        2.228145    4.868374    0.571014
     40          6           0        0.156207    4.454533    1.238069
     41          1           0       -0.187802    5.274075    1.846855
     42          6           0       -1.997625    3.158213    1.447499
     43          1           0       -2.006411    3.318160    2.530220
     44          1           0       -2.240342    2.112584    1.251280
     45          6           0       -2.989512    4.076682    0.754746
     46          1           0       -2.760407    5.123042    0.995121
     47          1           0       -2.875038    3.961193   -0.328430
     48          6           0       -4.423444    3.752676    1.148559
     49          1           0       -4.660478    2.736818    0.812815
     50          1           0       -4.512396    3.751244    2.242566
     51          6           0       -5.419097    4.736408    0.555143
     52          1           0       -6.445249    4.479164    0.830935
     53          1           0       -5.360152    4.736188   -0.537188
     54          1           0       -5.225089    5.756999    0.901998
     55          6           0       -3.374729    1.430652   -1.655447
     56          1           0       -2.476867    1.866537   -2.083854
     57          6           0       -4.627496    1.729212   -2.159989
     58          1           0       -4.690751    2.416391   -2.998532
     59          6           0       -5.817869    1.167887   -1.643979
     60          6           0       -5.715018    0.287067   -0.574553
     61          1           0       -6.601943   -0.172963   -0.152895
     62          6           0       -4.463839   -0.032670   -0.041250
     63          6           0       -3.279461    0.535912   -0.582399
     64          6           0       -2.594550   -0.798496    1.014830
     65          6           0       -4.017271   -0.920668    0.996761
     66          6           0       -4.663900   -1.824499    1.833672
     67          1           0       -5.747001   -1.902947    1.794106
     68          6           0       -3.934117   -2.638472    2.698029
     69          6           0       -2.536138   -2.502313    2.710473
     70          1           0       -1.943576   -3.109626    3.385282
     71          6           0       -1.850632   -1.592289    1.910064
     72          6           0       -7.152162    1.508459   -2.306792
     73          6           0       -8.330140    0.824317   -1.614109
     74          1           0       -8.243162   -0.265659   -1.652448
     75          1           0       -9.262354    1.101695   -2.115313
     76          1           0       -8.411262    1.126450   -0.565544
     77          6           0       -7.391376    3.023008   -2.264691
     78          1           0       -7.447082    3.376336   -1.231672
     79          1           0       -8.332513    3.274565   -2.765623
     80          1           0       -6.589205    3.572836   -2.764133
     81          6           0       -7.123814    1.043535   -3.770050
     82          1           0       -6.319336    1.528398   -4.329441
     83          1           0       -8.071132    1.282225   -4.265836
     84          1           0       -6.967287   -0.037384   -3.828537
     85          6           0       -4.665708   -3.641422    3.590514
     86          6           0       -3.707803   -4.443935    4.470711
     87          1           0       -2.998753   -5.024137    3.872490
     88          1           0       -4.277651   -5.146815    5.085782
     89          1           0       -3.139118   -3.796451    5.144762
     90          6           0       -5.446704   -4.628685    2.711830
     91          1           0       -6.181214   -4.114422    2.086527
     92          1           0       -5.981904   -5.355406    3.332751
     93          1           0       -4.768439   -5.175481    2.049887
     94          6           0       -5.644987   -2.895528    4.506987
     95          1           0       -5.110500   -2.187918    5.147580
     96          1           0       -6.183753   -3.601371    5.148564
     97          1           0       -6.384141   -2.332860    3.930779
     98          6           0       -0.381053   -1.471736    1.954129
     99          6           0        0.450150   -2.533361    1.583570
    100          1           0        0.005460   -3.496739    1.355349
    101          6           0        1.809874   -2.338518    1.410262
    102          1           0        2.442179   -3.137308    1.041547
    103          6           0        2.375851   -1.082918    1.644710
    104          6           0        1.571188   -0.053956    2.136868
    105          1           0        2.019585    0.911800    2.334475
    106          6           0        0.208136   -0.244160    2.276287
    107          1           0       -0.425057    0.572089    2.605580
    108          6           0        3.761466   -0.797714    1.255177
    109          6           0        5.631884   -1.377741    0.131448
    110          6           0        5.471870    0.664526    1.073099
    111          6           0        6.368351   -2.351332   -0.699306
    112          6           0        5.769216   -3.562091   -1.056017
    113          1           0        4.769227   -3.772021   -0.695688
    114          6           0        6.449062   -4.466950   -1.857851
    115          1           0        5.979367   -5.405721   -2.131562
    116          6           0        7.732373   -4.172975   -2.308530
    117          1           0        8.263691   -4.881936   -2.934736
    118          6           0        8.333744   -2.969319   -1.954783
    119          1           0        9.334613   -2.739386   -2.303987
    120          6           0        7.655542   -2.060819   -1.155431
    121          1           0        8.107093   -1.117627   -0.872802
    122          6           0        6.023618    2.012233    1.313202
    123          6           0        7.273464    2.365790    0.802955
    124          1           0        7.840170    1.623741    0.253731
    125          6           0        7.768299    3.647894    0.994639
    126          1           0        8.739827    3.917271    0.594425
    127          6           0        7.020697    4.586360    1.698566
    128          1           0        7.408861    5.588471    1.847818
    129          6           0        5.775480    4.237150    2.213391
    130          1           0        5.192744    4.965943    2.766941
    131          6           0        5.277763    2.957066    2.021723
    132          1           0        4.307889    2.668515    2.408363
 ---------------------------------------------------------------------
 Rotational constants (GHZ):           0.0519898           0.0224263           0.0198640
 General basis read from cards:  (5D, 7F)
 ======================================================================================================
                                       Pseudopotential Parameters
 ======================================================================================================
  Center     Atomic      Valence      Angular      Power
  Number     Number     Electrons     Momentum     of R      Exponent        Coefficient   SO-Coeffient
 ======================================================================================================
    1         46           18
                                      G and up 
                                                     2        1.0000000        0.00000000    0.00000000
                                      S - G
                                                     2       12.4300000      240.22904000    0.00000000
                                                     2        6.1707590       35.17194300    0.00000000
                                      P - G
                                                     2       11.0800000      170.41727600    0.00000000
                                                     2        5.8295540       28.47213300    0.00000000
                                      D - G
                                                     2        9.5100000       69.01384500    0.00000000
                                                     2        4.1397810       11.75086200    0.00000000
                                      F - G
                                                     2       13.2700000      -31.92955400    0.00000000
                                                     2        6.6300000       -5.39821700    0.00000000
    2          7
                                   No pseudopotential on this center.
    3          7
                                   No pseudopotential on this center.
    4          7
                                   No pseudopotential on this center.
    5          7
                                   No pseudopotential on this center.
    6          7
                                   No pseudopotential on this center.
    7          7
                                   No pseudopotential on this center.
    8          7
                                   No pseudopotential on this center.
    9          7
                                   No pseudopotential on this center.
   10          6
                                   No pseudopotential on this center.
   11          1
                                   No pseudopotential on this center.
   12          1
                                   No pseudopotential on this center.
   13          1
                                   No pseudopotential on this center.
   14          6
                                   No pseudopotential on this center.
   15          1
                                   No pseudopotential on this center.
   16          1
                                   No pseudopotential on this center.
   17          6
                                   No pseudopotential on this center.
   18          1
                                   No pseudopotential on this center.
   19          1
                                   No pseudopotential on this center.
   20          6
                                   No pseudopotential on this center.
   21          1
                                   No pseudopotential on this center.
   22          1
                                   No pseudopotential on this center.
   23          6
                                   No pseudopotential on this center.
   24          1
                                   No pseudopotential on this center.
   25          6
                                   No pseudopotential on this center.
   26          1
                                   No pseudopotential on this center.
   27          6
                                   No pseudopotential on this center.
   28          6
                                   No pseudopotential on this center.
   29          6
                                   No pseudopotential on this center.
   30          6
                                   No pseudopotential on this center.
   31          6
                                   No pseudopotential on this center.
   32          1
                                   No pseudopotential on this center.
   33          6
                                   No pseudopotential on this center.
   34          1
                                   No pseudopotential on this center.
   35          6
                                   No pseudopotential on this center.
   36          1
                                   No pseudopotential on this center.
   37          6
                                   No pseudopotential on this center.
   38          6
                                   No pseudopotential on this center.
   39          1
                                   No pseudopotential on this center.
   40          6
                                   No pseudopotential on this center.
   41          1
                                   No pseudopotential on this center.
   42          6
                                   No pseudopotential on this center.
   43          1
                                   No pseudopotential on this center.
   44          1
                                   No pseudopotential on this center.
   45          6
                                   No pseudopotential on this center.
   46          1
                                   No pseudopotential on this center.
   47          1
                                   No pseudopotential on this center.
   48          6
                                   No pseudopotential on this center.
   49          1
                                   No pseudopotential on this center.
   50          1
                                   No pseudopotential on this center.
   51          6
                                   No pseudopotential on this center.
   52          1
                                   No pseudopotential on this center.
   53          1
                                   No pseudopotential on this center.
   54          1
                                   No pseudopotential on this center.
   55          6
                                   No pseudopotential on this center.
   56          1
                                   No pseudopotential on this center.
   57          6
                                   No pseudopotential on this center.
   58          1
                                   No pseudopotential on this center.
   59          6
                                   No pseudopotential on this center.
   60          6
                                   No pseudopotential on this center.
   61          1
                                   No pseudopotential on this center.
   62          6
                                   No pseudopotential on this center.
   63          6
                                   No pseudopotential on this center.
   64          6
                                   No pseudopotential on this center.
   65          6
                                   No pseudopotential on this center.
   66          6
                                   No pseudopotential on this center.
   67          1
                                   No pseudopotential on this center.
   68          6
                                   No pseudopotential on this center.
   69          6
                                   No pseudopotential on this center.
   70          1
                                   No pseudopotential on this center.
   71          6
                                   No pseudopotential on this center.
   72          6
                                   No pseudopotential on this center.
   73          6
                                   No pseudopotential on this center.
   74          1
                                   No pseudopotential on this center.
   75          1
                                   No pseudopotential on this center.
   76          1
                                   No pseudopotential on this center.
   77          6
                                   No pseudopotential on this center.
   78          1
                                   No pseudopotential on this center.
   79          1
                                   No pseudopotential on this center.
   80          1
                                   No pseudopotential on this center.
   81          6
                                   No pseudopotential on this center.
   82          1
                                   No pseudopotential on this center.
   83          1
                                   No pseudopotential on this center.
   84          1
                                   No pseudopotential on this center.
   85          6
                                   No pseudopotential on this center.
   86          6
                                   No pseudopotential on this center.
   87          1
                                   No pseudopotential on this center.
   88          1
                                   No pseudopotential on this center.
   89          1
                                   No pseudopotential on this center.
   90          6
                                   No pseudopotential on this center.
   91          1
                                   No pseudopotential on this center.
   92          1
                                   No pseudopotential on this center.
   93          1
                                   No pseudopotential on this center.
   94          6
                                   No pseudopotential on this center.
   95          1
                                   No pseudopotential on this center.
   96          1
                                   No pseudopotential on this center.
   97          1
                                   No pseudopotential on this center.
   98          6
                                   No pseudopotential on this center.
   99          6
                                   No pseudopotential on this center.
  100          1
                                   No pseudopotential on this center.
  101          6
                                   No pseudopotential on this center.
  102          1
                                   No pseudopotential on this center.
  103          6
                                   No pseudopotential on this center.
  104          6
                                   No pseudopotential on this center.
  105          1
                                   No pseudopotential on this center.
  106          6
                                   No pseudopotential on this center.
  107          1
                                   No pseudopotential on this center.
  108          6
                                   No pseudopotential on this center.
  109          6
                                   No pseudopotential on this center.
  110          6
                                   No pseudopotential on this center.
  111          6
                                   No pseudopotential on this center.
  112          6
                                   No pseudopotential on this center.
  113          1
                                   No pseudopotential on this center.
  114          6
                                   No pseudopotential on this center.
  115          1
                                   No pseudopotential on this center.
  116          6
                                   No pseudopotential on this center.
  117          1
                                   No pseudopotential on this center.
  118          6
                                   No pseudopotential on this center.
  119          1
                                   No pseudopotential on this center.
  120          6
                                   No pseudopotential on this center.
  121          1
                                   No pseudopotential on this center.
  122          6
                                   No pseudopotential on this center.
  123          6
                                   No pseudopotential on this center.
  124          1
                                   No pseudopotential on this center.
  125          6
                                   No pseudopotential on this center.
  126          1
                                   No pseudopotential on this center.
  127          6
                                   No pseudopotential on this center.
  128          1
                                   No pseudopotential on this center.
  129          6
                                   No pseudopotential on this center.
  130          1
                                   No pseudopotential on this center.
  131          6
                                   No pseudopotential on this center.
  132          1
                                   No pseudopotential on this center.
 ======================================================================================================
 There are  1722 symmetry adapted cartesian basis functions of A   symmetry.
 There are  1650 symmetry adapted basis functions of A   symmetry.
  1650 basis functions,  2769 primitive gaussians,  1722 cartesian basis functions
   251 alpha electrons      251 beta electrons
       nuclear repulsion energy     11977.3412740627 Hartrees.
 NAtoms=  132 NActive=  132 NUniq=  132 SFac= 1.00D+00 NAtFMM=   60 NAOKFM=T Big=T
 Integral buffers will be    131072 words long.
 Regular integral format.
 Two-electron integral symmetry is turned on.
 Nuclear repulsion after empirical dispersion term =    11977.1215935334 Hartrees.
 ------------------------------------------------------------------------------
 Polarizable Continuum Model (PCM)
 =================================
 Model                : PCM.
 Atomic radii         : UFF (Universal Force Field).
 Polarization charges : Total charges.
 Charge compensation  : None.
 Solution method      : On-the-fly selection.
 Cavity type          : Scaled VdW (van der Waals Surface) (Alpha=1.100).
 Cavity algorithm     : GePol (No added spheres)
                        Default sphere list used, NSphG=  132.
                        Lebedev-Laikov grids with approx.  5.0 points / Ang**2.
                        Smoothing algorithm: York/Karplus (Gamma=1.0000).
                        Polarization charges: spherical gaussians, with
                                              point-specific exponents (IZeta= 3).
                        Self-potential: point-specific (ISelfS= 7).
                        Self-field    : sphere-specific E.n sum rule (ISelfD= 2).
 Solvent              : Toluene, Eps=   2.374100 Eps(inf)=   2.238315
 ------------------------------------------------------------------------------
 One-electron integrals computed using PRISM.
   1 Symmetry operations used in ECPInt.
 ECPInt:  NShTT=  184528 NPrTT=  747470 LenC2=  114710 LenP2D=  259343.
 LDataN:  DoStor=T MaxTD1= 6 Len=  172
 NBasis=  1650 RedAO= T EigKep=  6.81D-05  NBF=  1650
 NBsUse=  1650 1.00D-06 EigRej= -1.00D+00 NBFU=  1650
 Defaulting to unpruned grid for atomic number  46.
 ExpMin= 1.60D-02 ExpMax= 6.29D+03 ExpMxC= 9.49D+02 IAcc=3 IRadAn=         5 AccDes= 0.00D+00
 Harris functional with IExCor= 1009 and IRadAn=       5 diagonalized for initial guess.
 HarFok:  IExCor= 1009 AccDes= 0.00D+00 IRadAn=         5 IDoV= 1 UseB2=F ITyADJ=14
 ICtDFT=  3500011 ScaDFX=  1.000000  1.000000  1.000000  1.000000
 Defaulting to unpruned grid for atomic number  46.
 FoFCou: FMM=F IPFlag=           0 FMFlag=      100000 FMFlg1=        2001
         NFxFlg=           0 DoJE=T BraDBF=F KetDBF=T FulRan=T
         wScrn=  0.000000 ICntrl=       500 IOpCl=  0 I1Cent=   200000004 NGrid=           0
         NMat0=    1 NMatS0=      1 NMatT0=    0 NMatD0=    1 NMtDS0=    0 NMtDT0=    0
 Petite list used in FoFCou.
 Requested convergence on RMS density matrix=1.00D-08 within 128 cycles.
 Requested convergence on MAX density matrix=1.00D-06.
 Requested convergence on             energy=1.00D-06.
 No special actions if energy rises.
 Defaulting to unpruned grid for atomic number  46.
 Defaulting to unpruned grid for atomic number  46.
 Defaulting to unpruned grid for atomic number  46.
 Defaulting to unpruned grid for atomic number  46.
 Defaulting to unpruned grid for atomic number  46.
 Defaulting to unpruned grid for atomic number  46.
 Defaulting to unpruned grid for atomic number  46.
 Defaulting to unpruned grid for atomic number  46.
 Defaulting to unpruned grid for atomic number  46.
 Defaulting to unpruned grid for atomic number  46.
 Defaulting to unpruned grid for atomic number  46.
 Defaulting to unpruned grid for atomic number  46.
 Defaulting to unpruned grid for atomic number  46.
 Defaulting to unpruned grid for atomic number  46.
 Defaulting to unpruned grid for atomic number  46.
 Defaulting to unpruned grid for atomic number  46.
 Defaulting to unpruned grid for atomic number  46.
 Defaulting to unpruned grid for atomic number  46.
 Defaulting to unpruned grid for atomic number  46.
 Defaulting to unpruned grid for atomic number  46.
 Defaulting to unpruned grid for atomic number  46.
 Defaulting to unpruned grid for atomic number  46.
 Defaulting to unpruned grid for atomic number  46.
 Defaulting to unpruned grid for atomic number  46.
 Defaulting to unpruned grid for atomic number  46.
 Defaulting to unpruned grid for atomic number  46.
 Defaulting to unpruned grid for atomic number  46.
 Defaulting to unpruned grid for atomic number  46.
 Defaulting to unpruned grid for atomic number  46.
 Defaulting to unpruned grid for atomic number  46.
 Defaulting to unpruned grid for atomic number  46.
 Defaulting to unpruned grid for atomic number  46.
 Defaulting to unpruned grid for atomic number  46.
 Defaulting to unpruned grid for atomic number  46.
 Defaulting to unpruned grid for atomic number  46.
 Defaulting to unpruned grid for atomic number  46.
 Defaulting to unpruned grid for atomic number  46.
 Defaulting to unpruned grid for atomic number  46.
 Defaulting to unpruned grid for atomic number  46.
 Defaulting to unpruned grid for atomic number  46.
 Defaulting to unpruned grid for atomic number  46.
 Defaulting to unpruned grid for atomic number  46.
 Defaulting to unpruned grid for atomic number  46.
 Defaulting to unpruned grid for atomic number  46.
 Defaulting to unpruned grid for atomic number  46.
 Defaulting to unpruned grid for atomic number  46.
 Defaulting to unpruned grid for atomic number  46.
 Defaulting to unpruned grid for atomic number  46.
 Defaulting to unpruned grid for atomic number  46.
 Defaulting to unpruned grid for atomic number  46.
 Defaulting to unpruned grid for atomic number  46.
 Defaulting to unpruned grid for atomic number  46.
 Defaulting to unpruned grid for atomic number  46.
 Defaulting to unpruned grid for atomic number  46.
 Defaulting to unpruned grid for atomic number  46.
 Defaulting to unpruned grid for atomic number  46.
 Defaulting to unpruned grid for atomic number  46.
 Defaulting to unpruned grid for atomic number  46.
 Defaulting to unpruned grid for atomic number  46.
 Defaulting to unpruned grid for atomic number  46.
 Defaulting to unpruned grid for atomic number  46.
 Defaulting to unpruned grid for atomic number  46.
 Defaulting to unpruned grid for atomic number  46.
 Defaulting to unpruned grid for atomic number  46.
 Defaulting to unpruned grid for atomic number  46.
 Defaulting to unpruned grid for atomic number  46.
 Defaulting to unpruned grid for atomic number  46.
 Defaulting to unpruned grid for atomic number  46.
 Defaulting to unpruned grid for atomic number  46.
 Defaulting to unpruned grid for atomic number  46.
 Defaulting to unpruned grid for atomic number  46.
 Defaulting to unpruned grid for atomic number  46.
 Defaulting to unpruned grid for atomic number  46.
 Defaulting to unpruned grid for atomic number  46.
 Defaulting to unpruned grid for atomic number  46.
 Defaulting to unpruned grid for atomic number  46.
 Defaulting to unpruned grid for atomic number  46.
 Defaulting to unpruned grid for atomic number  46.
 Defaulting to unpruned grid for atomic number  46.
 Defaulting to unpruned grid for atomic number  46.
 Defaulting to unpruned grid for atomic number  46.
 Defaulting to unpruned grid for atomic number  46.
 Defaulting to unpruned grid for atomic number  46.
 Defaulting to unpruned grid for atomic number  46.
 Defaulting to unpruned grid for atomic number  46.
 Defaulting to unpruned grid for atomic number  46.
 Defaulting to unpruned grid for atomic number  46.
 Defaulting to unpruned grid for atomic number  46.
 Defaulting to unpruned grid for atomic number  46.
 Defaulting to unpruned grid for atomic number  46.
 Defaulting to unpruned grid for atomic number  46.
 Defaulting to unpruned grid for atomic number  46.
 Defaulting to unpruned grid for atomic number  46.
 Defaulting to unpruned grid for atomic number  46.
 Defaulting to unpruned grid for atomic number  46.
 Defaulting to unpruned grid for atomic number  46.
 Inv3:  Mode=1 IEnd=   173553708.
 Iteration    1 A*A^-1 deviation from unit magnitude is 4.22D-15 for   6176.
 Iteration    1 A*A^-1 deviation from orthogonality  is 2.44D-15 for   6700   4547.
 Iteration    1 A^-1*A deviation from unit magnitude is 4.44D-15 for   6176.
 Iteration    1 A^-1*A deviation from orthogonality  is 3.20D-15 for   3084    273.
 EnCoef did     7 forward-backward iterations
 EnCoef did   100 forward-backward iterations
 EnCoef did   100 forward-backward iterations
 EnCoef did     1 forward-backward iterations
 EnCoef did     1 forward-backward iterations
 Error on total polarization charges =  0.00990
 SCF Done:  E(RPBE1PBE) =  -2925.41902876     A.U. after   20 cycles
            NFock= 20  Conv=0.37D-08     -V/T= 2.0323
 DoSCS=F DFT=T ScalE2(SS,OS)=  1.000000  1.000000
 ExpMin= 1.60D-02 ExpMax= 6.29D+03 ExpMxC= 9.49D+02 IAcc=3 IRadAn=         5 AccDes= 0.00D+00
 HarFok:  IExCor=  205 AccDes= 0.00D+00 IRadAn=         5 IDoV=-2 UseB2=F ITyADJ=14
 ICtDFT= 12500011 ScaDFX=  1.000000  1.000000  1.000000  1.000000
 Defaulting to unpruned grid for atomic number  46.
 GSVD:  LWork=       -5913 too small for GESVD, short by       27740 words or       27740 for optimal perf.
 Range of M.O.s used for correlation:    74  1650
 NBasis=  1650 NAE=   251 NBE=   251 NFC=    73 NFV=     0
 NROrb=   1577 NOA=   178 NOB=   178 NVA=  1399 NVB=  1399

 **** Warning!!: The largest alpha MO coefficient is  0.14936879D+02

 NEqPCM:  Using non-equilibrium solvation (IEInf=1, Eps=   2.3741, EpsInf=   2.2383)
 Inv3:  Mode=1 IEnd=   173553708.
 Iteration    1 A*A^-1 deviation from unit magnitude is 3.55D-15 for    234.
 Iteration    1 A*A^-1 deviation from orthogonality  is 2.55D-15 for   6206    501.
 Iteration    1 A^-1*A deviation from unit magnitude is 3.33D-15 for    234.
 Iteration    1 A^-1*A deviation from orthogonality  is 2.44D-15 for   5725   1396.
 Orbital symmetries:
       Occupied  (A) (A) (A) (A) (A) (A) (A) (A) (A) (A) (A) (A)
                 (A) (A) (A) (A) (A) (A) (A) (A) (A) (A) (A) (A)
                 (A) (A) (A) (A) (A) (A) (A) (A) (A) (A) (A) (A)
                 (A) (A) (A) (A) (A) (A) (A) (A) (A) (A) (A) (A)
                 (A) (A) (A) (A) (A) (A) (A) (A) (A) (A) (A) (A)
                 (A) (A) (A) (A) (A) (A) (A) (A) (A) (A) (A) (A)
                 (A) (A) (A) (A) (A) (A) (A) (A) (A) (A) (A) (A)
                 (A) (A) (A) (A) (A) (A) (A) (A) (A) (A) (A) (A)
                 (A) (A) (A) (A) (A) (A) (A) (A) (A) (A) (A) (A)
                 (A) (A) (A) (A) (A) (A) (A) (A) (A) (A) (A) (A)
                 (A) (A) (A) (A) (A) (A) (A) (A) (A) (A) (A) (A)
                 (A) (A) (A) (A) (A) (A) (A) (A) (A) (A) (A) (A)
                 (A) (A) (A) (A) (A) (A) (A) (A) (A) (A) (A) (A)
                 (A) (A) (A) (A) (A) (A) (A) (A) (A) (A) (A) (A)
                 (A) (A) (A) (A) (A) (A) (A) (A) (A) (A) (A) (A)
                 (A) (A) (A) (A) (A) (A) (A) (A) (A) (A) (A) (A)
                 (A) (A) (A) (A) (A) (A) (A) (A) (A) (A) (A) (A)
                 (A) (A) (A) (A) (A) (A) (A) (A) (A) (A) (A) (A)
                 (A) (A) (A) (A) (A) (A) (A) (A) (A) (A) (A) (A)
                 (A) (A) (A) (A) (A) (A) (A) (A) (A) (A) (A) (A)
                 (A) (A) (A) (A) (A) (A) (A) (A) (A) (A) (A)
       Virtual   (A) (A) (A) (A) (A) (A) (A) (A) (A) (A) (A) (A)
                 (A) (A) (A) (A) (A) (A) (A) (A) (A) (A) (A) (A)
                 (A) (A) (A) (A) (A) (A) (A) (A) (A) (A) (A) (A)
                 (A) (A) (A) (A) (A) (A) (A) (A) (A) (A) (A) (A)
                 (A) (A) (A) (A) (A) (A) (A) (A) (A) (A) (A) (A)
                 (A) (A) (A) (A) (A) (A) (A) (A) (A) (A) (A) (A)
                 (A) (A) (A) (A) (A) (A) (A) (A) (A) (A) (A) (A)
                 (A) (A) (A) (A) (A) (A) (A) (A) (A) (A) (A) (A)
                 (A) (A) (A) (A) (A) (A) (A) (A) (A) (A) (A) (A)
                 (A) (A) (A) (A) (A) (A) (A) (A) (A) (A) (A) (A)
                 (A) (A) (A) (A) (A) (A) (A) (A) (A) (A) (A) (A)
                 (A) (A) (A) (A) (A) (A) (A) (A) (A) (A) (A) (A)
                 (A) (A) (A) (A) (A) (A) (A) (A) (A) (A) (A) (A)
                 (A) (A) (A) (A) (A) (A) (A) (A) (A) (A) (A) (A)
                 (A) (A) (A) (A) (A) (A) (A) (A) (A) (A) (A) (A)
                 (A) (A) (A) (A) (A) (A) (A) (A) (A) (A) (A) (A)
                 (A) (A) (A) (A) (A) (A) (A) (A) (A) (A) (A) (A)
                 (A) (A) (A) (A) (A) (A) (A) (A) (A) (A) (A) (A)
                 (A) (A) (A) (A) (A) (A) (A) (A) (A) (A) (A) (A)
                 (A) (A) (A) (A) (A) (A) (A) (A) (A) (A) (A) (A)
                 (A) (A) (A) (A) (A) (A) (A) (A) (A) (A) (A) (A)
                 (A) (A) (A) (A) (A) (A) (A) (A) (A) (A) (A) (A)
                 (A) (A) (A) (A) (A) (A) (A) (A) (A) (A) (A) (A)
                 (A) (A) (A) (A) (A) (A) (A) (A) (A) (A) (A) (A)
                 (A) (A) (A) (A) (A) (A) (A) (A) (A) (A) (A) (A)
                 (A) (A) (A) (A) (A) (A) (A) (A) (A) (A) (A) (A)
                 (A) (A) (A) (A) (A) (A) (A) (A) (A) (A) (A) (A)
                 (A) (A) (A) (A) (A) (A) (A) (A) (A) (A) (A) (A)
                 (A) (A) (A) (A) (A) (A) (A) (A) (A) (A) (A) (A)
                 (A) (A) (A) (A) (A) (A) (A) (A) (A) (A) (A) (A)
                 (A) (A) (A) (A) (A) (A) (A) (A) (A) (A) (A) (A)
                 (A) (A) (A) (A) (A) (A) (A) (A) (A) (A) (A) (A)
                 (A) (A) (A) (A) (A) (A) (A) (A) (A) (A) (A) (A)
                 (A) (A) (A) (A) (A) (A) (A) (A) (A) (A) (A) (A)
                 (A) (A) (A) (A) (A) (A) (A) (A) (A) (A) (A) (A)
                 (A) (A) (A) (A) (A) (A) (A) (A) (A) (A) (A) (A)
                 (A) (A) (A) (A) (A) (A) (A) (A) (A) (A) (A) (A)
                 (A) (A) (A) (A) (A) (A) (A) (A) (A) (A) (A) (A)
                 (A) (A) (A) (A) (A) (A) (A) (A) (A) (A) (A) (A)
                 (A) (A) (A) (A) (A) (A) (A) (A) (A) (A) (A) (A)
                 (A) (A) (A) (A) (A) (A) (A) (A) (A) (A) (A) (A)
                 (A) (A) (A) (A) (A) (A) (A) (A) (A) (A) (A) (A)
                 (A) (A) (A) (A) (A) (A) (A) (A) (A) (A) (A) (A)
                 (A) (A) (A) (A) (A) (A) (A) (A) (A) (A) (A) (A)
                 (A) (A) (A) (A) (A) (A) (A) (A) (A) (A) (A) (A)
                 (A) (A) (A) (A) (A) (A) (A) (A) (A) (A) (A) (A)
                 (A) (A) (A) (A) (A) (A) (A) (A) (A) (A) (A) (A)
                 (A) (A) (A) (A) (A) (A) (A) (A) (A) (A) (A) (A)
                 (A) (A) (A) (A) (A) (A) (A) (A) (A) (A) (A) (A)
                 (A) (A) (A) (A) (A) (A) (A) (A) (A) (A) (A) (A)
                 (A) (A) (A) (A) (A) (A) (A) (A) (A) (A) (A) (A)
                 (A) (A) (A) (A) (A) (A) (A) (A) (A) (A) (A) (A)
                 (A) (A) (A) (A) (A) (A) (A) (A) (A) (A) (A) (A)
                 (A) (A) (A) (A) (A) (A) (A) (A) (A) (A) (A) (A)
                 (A) (A) (A) (A) (A) (A) (A) (A) (A) (A) (A) (A)
                 (A) (A) (A) (A) (A) (A) (A) (A) (A) (A) (A) (A)
                 (A) (A) (A) (A) (A) (A) (A) (A) (A) (A) (A) (A)
                 (A) (A) (A) (A) (A) (A) (A) (A) (A) (A) (A) (A)
                 (A) (A) (A) (A) (A) (A) (A) (A) (A) (A) (A) (A)
                 (A) (A) (A) (A) (A) (A) (A) (A) (A) (A) (A) (A)
                 (A) (A) (A) (A) (A) (A) (A) (A) (A) (A) (A) (A)
                 (A) (A) (A) (A) (A) (A) (A) (A) (A) (A) (A) (A)
                 (A) (A) (A) (A) (A) (A) (A) (A) (A) (A) (A) (A)
                 (A) (A) (A) (A) (A) (A) (A) (A) (A) (A) (A) (A)
                 (A) (A) (A) (A) (A) (A) (A) (A) (A) (A) (A) (A)
                 (A) (A) (A) (A) (A) (A) (A) (A) (A) (A) (A) (A)
                 (A) (A) (A) (A) (A) (A) (A) (A) (A) (A) (A) (A)
                 (A) (A) (A) (A) (A) (A) (A) (A) (A) (A) (A) (A)
                 (A) (A) (A) (A) (A) (A) (A) (A) (A) (A) (A) (A)
                 (A) (A) (A) (A) (A) (A) (A) (A) (A) (A) (A) (A)
                 (A) (A) (A) (A) (A) (A) (A) (A) (A) (A) (A) (A)
                 (A) (A) (A) (A) (A) (A) (A) (A) (A) (A) (A) (A)
                 (A) (A) (A) (A) (A) (A) (A) (A) (A) (A) (A) (A)
                 (A) (A) (A) (A) (A) (A) (A) (A) (A) (A) (A) (A)
                 (A) (A) (A) (A) (A) (A) (A) (A) (A) (A) (A) (A)
                 (A) (A) (A) (A) (A) (A) (A) (A) (A) (A) (A) (A)
                 (A) (A) (A) (A) (A) (A) (A) (A) (A) (A) (A) (A)
                 (A) (A) (A) (A) (A) (A) (A) (A) (A) (A) (A) (A)
                 (A) (A) (A) (A) (A) (A) (A) (A) (A) (A) (A) (A)
                 (A) (A) (A) (A) (A) (A) (A) (A) (A) (A) (A) (A)
                 (A) (A) (A) (A) (A) (A) (A) (A) (A) (A) (A) (A)
                 (A) (A) (A) (A) (A) (A) (A) (A) (A) (A) (A) (A)
                 (A) (A) (A) (A) (A) (A) (A) (A) (A) (A) (A) (A)
                 (A) (A) (A) (A) (A) (A) (A) (A) (A) (A) (A) (A)
                 (A) (A) (A) (A) (A) (A) (A) (A) (A) (A) (A) (A)
                 (A) (A) (A) (A) (A) (A) (A) (A) (A) (A) (A) (A)
                 (A) (A) (A) (A) (A) (A) (A) (A) (A) (A) (A) (A)
                 (A) (A) (A) (A) (A) (A) (A) (A) (A) (A) (A) (A)
                 (A) (A) (A) (A) (A) (A) (A) (A) (A) (A) (A) (A)
                 (A) (A) (A) (A) (A) (A) (A) (A) (A) (A) (A) (A)
                 (A) (A) (A) (A) (A) (A) (A) (A) (A) (A) (A) (A)
                 (A) (A) (A) (A) (A) (A) (A) (A) (A) (A) (A) (A)
                 (A) (A) (A) (A) (A) (A) (A) (A) (A) (A) (A) (A)
                 (A) (A) (A) (A) (A) (A) (A) (A) (A) (A) (A) (A)
                 (A) (A) (A) (A) (A) (A) (A) (A) (A) (A) (A) (A)
                 (A) (A) (A) (A) (A) (A) (A) (A) (A) (A) (A) (A)
                 (A) (A) (A) (A) (A) (A) (A) (A) (A) (A) (A) (A)
                 (A) (A) (A) (A) (A) (A) (A) (A) (A) (A) (A) (A)
                 (A) (A) (A) (A) (A) (A) (A) (A) (A) (A) (A) (A)
                 (A) (A) (A) (A) (A) (A) (A) (A) (A) (A) (A) (A)
                 (A) (A) (A) (A) (A) (A) (A) (A) (A) (A) (A) (A)
                 (A) (A) (A) (A) (A) (A) (A) (A) (A) (A) (A) (A)
                 (A) (A) (A) (A) (A) (A) (A) (A) (A) (A) (A) (A)
                 (A) (A) (A) (A) (A) (A) (A) (A) (A) (A) (A) (A)
                 (A) (A) (A) (A) (A) (A) (A) (A) (A) (A) (A) (A)
                 (A) (A) (A) (A) (A) (A) (A) (A) (A) (A) (A) (A)
                 (A) (A) (A) (A) (A) (A) (A) (A) (A) (A) (A) (A)
                 (A) (A) (A) (A) (A) (A) (A) (A) (A) (A) (A) (A)
                 (A) (A) (A) (A) (A) (A) (A) (A) (A) (A) (A) (A)
                 (A) (A) (A) (A) (A) (A) (A) (A) (A) (A) (A) (A)
                 (A) (A) (A) (A) (A) (A) (A) (A) (A) (A) (A) (A)
                 (A) (A) (A) (A) (A) (A) (A) (A) (A) (A) (A) (A)
                 (A) (A) (A) (A) (A) (A) (A) (A) (A) (A) (A) (A)
                 (A) (A) (A) (A) (A) (A) (A) (A) (A) (A) (A) (A)
                 (A) (A) (A) (A) (A) (A) (A) (A) (A) (A) (A) (A)
                 (A) (A) (A) (A) (A) (A) (A) (A) (A) (A) (A) (A)
                 (A) (A) (A) (A) (A) (A) (A)
    20 initial guesses have been made.
 Convergence on wavefunction:    0.001000000000000
 Iteration     1 Dimension    20 NMult     0 NNew     20
 CISAX will form    20 AO SS matrices at one time.
 Defaulting to unpruned grid for atomic number  46.
 Defaulting to unpruned grid for atomic number  46.
 Defaulting to unpruned grid for atomic number  46.
 Defaulting to unpruned grid for atomic number  46.
 Defaulting to unpruned grid for atomic number  46.
 Defaulting to unpruned grid for atomic number  46.
 Defaulting to unpruned grid for atomic number  46.
 Defaulting to unpruned grid for atomic number  46.
 Defaulting to unpruned grid for atomic number  46.
 Defaulting to unpruned grid for atomic number  46.
 Defaulting to unpruned grid for atomic number  46.
 Defaulting to unpruned grid for atomic number  46.
 Defaulting to unpruned grid for atomic number  46.
 Defaulting to unpruned grid for atomic number  46.
 Defaulting to unpruned grid for atomic number  46.
 Defaulting to unpruned grid for atomic number  46.
 Defaulting to unpruned grid for atomic number  46.
 Defaulting to unpruned grid for atomic number  46.
 Defaulting to unpruned grid for atomic number  46.
 Defaulting to unpruned grid for atomic number  46.
 Defaulting to unpruned grid for atomic number  46.
 Defaulting to unpruned grid for atomic number  46.
 Defaulting to unpruned grid for atomic number  46.
 Defaulting to unpruned grid for atomic number  46.
 Defaulting to unpruned grid for atomic number  46.
 Defaulting to unpruned grid for atomic number  46.
 Defaulting to unpruned grid for atomic number  46.
 Defaulting to unpruned grid for atomic number  46.
 Defaulting to unpruned grid for atomic number  46.
 Defaulting to unpruned grid for atomic number  46.
 Defaulting to unpruned grid for atomic number  46.
 Defaulting to unpruned grid for atomic number  46.
 Defaulting to unpruned grid for atomic number  46.
 Defaulting to unpruned grid for atomic number  46.
 Defaulting to unpruned grid for atomic number  46.
 Defaulting to unpruned grid for atomic number  46.
 Defaulting to unpruned grid for atomic number  46.
 Defaulting to unpruned grid for atomic number  46.
 Defaulting to unpruned grid for atomic number  46.
 Defaulting to unpruned grid for atomic number  46.
 Defaulting to unpruned grid for atomic number  46.
 Defaulting to unpruned grid for atomic number  46.
 Defaulting to unpruned grid for atomic number  46.
 Defaulting to unpruned grid for atomic number  46.
 Defaulting to unpruned grid for atomic number  46.
 Defaulting to unpruned grid for atomic number  46.
 Defaulting to unpruned grid for atomic number  46.
 Defaulting to unpruned grid for atomic number  46.
 Defaulting to unpruned grid for atomic number  46.
 Defaulting to unpruned grid for atomic number  46.
 Defaulting to unpruned grid for atomic number  46.
 Defaulting to unpruned grid for atomic number  46.
 Defaulting to unpruned grid for atomic number  46.
 Defaulting to unpruned grid for atomic number  46.
 Defaulting to unpruned grid for atomic number  46.
 Defaulting to unpruned grid for atomic number  46.
 Defaulting to unpruned grid for atomic number  46.
 Defaulting to unpruned grid for atomic number  46.
 Defaulting to unpruned grid for atomic number  46.
 Defaulting to unpruned grid for atomic number  46.
 Defaulting to unpruned grid for atomic number  46.
 Defaulting to unpruned grid for atomic number  46.
 Defaulting to unpruned grid for atomic number  46.
 Defaulting to unpruned grid for atomic number  46.
 Defaulting to unpruned grid for atomic number  46.
 Defaulting to unpruned grid for atomic number  46.
 Defaulting to unpruned grid for atomic number  46.
 Defaulting to unpruned grid for atomic number  46.
 Defaulting to unpruned grid for atomic number  46.
 Defaulting to unpruned grid for atomic number  46.
 Defaulting to unpruned grid for atomic number  46.
 Defaulting to unpruned grid for atomic number  46.
 Defaulting to unpruned grid for atomic number  46.
 Defaulting to unpruned grid for atomic number  46.
 Defaulting to unpruned grid for atomic number  46.
 Defaulting to unpruned grid for atomic number  46.
 Defaulting to unpruned grid for atomic number  46.
 Defaulting to unpruned grid for atomic number  46.
 Defaulting to unpruned grid for atomic number  46.
 Defaulting to unpruned grid for atomic number  46.
 Defaulting to unpruned grid for atomic number  46.
 Defaulting to unpruned grid for atomic number  46.
 Defaulting to unpruned grid for atomic number  46.
 Defaulting to unpruned grid for atomic number  46.
 Defaulting to unpruned grid for atomic number  46.
 Defaulting to unpruned grid for atomic number  46.
 Defaulting to unpruned grid for atomic number  46.
 Defaulting to unpruned grid for atomic number  46.
 Defaulting to unpruned grid for atomic number  46.
 Defaulting to unpruned grid for atomic number  46.
 Defaulting to unpruned grid for atomic number  46.
 Defaulting to unpruned grid for atomic number  46.
 Defaulting to unpruned grid for atomic number  46.
 Defaulting to unpruned grid for atomic number  46.
 Defaulting to unpruned grid for atomic number  46.
 Defaulting to unpruned grid for atomic number  46.
 New state      1 was old state      2
 New state      2 was old state      1
 New state      3 was old state      5
 New state      5 was old state      3
 Iteration     2 Dimension    30 NMult    20 NNew     10
 Iteration     3 Dimension    40 NMult    30 NNew     10
 Iteration     4 Dimension    50 NMult    40 NNew     10
 Iteration     5 Dimension    56 NMult    50 NNew      6
 Iteration     6 Dimension    58 NMult    56 NNew      2
 ***********************************************************************
 Excited states from <AA,BB:AA,BB> singles matrix:
 ***********************************************************************
 
 Ground to excited state transition densities written to RWF  633
 Ground to excited state transition electric dipole moments (Au):
       state          X           Y           Z        Dip. S.      Osc.
         1         1.1667     -0.0188      0.0752      1.3672      0.0774
         2        -0.0917      0.0115     -0.0090      0.0086      0.0005
         3        -0.3371     -0.1442      0.0320      0.1355      0.0102
         4         0.1452      0.2086     -0.1972      0.1035      0.0080
         5        -0.0444      0.0227     -0.0152      0.0027      0.0002
 Ground to excited state transition velocity dipole moments (Au):
       state          X           Y           Z        Dip. S.      Osc.
         1        -0.0981      0.0013     -0.0071      0.0097      0.0760
         2         0.0075     -0.0014      0.0003      0.0001      0.0004
         3         0.0383      0.0155     -0.0020      0.0017      0.0101
         4        -0.0153     -0.0257      0.0231      0.0014      0.0082
         5         0.0046     -0.0029      0.0016      0.0000      0.0002
 Ground to excited state transition magnetic dipole moments (Au):
       state          X           Y           Z
         1         0.0707     -0.6389     -0.5027
         2         0.0507     -0.0168      0.0517
         3         0.0168     -0.0571     -0.1206
         4         0.0391      0.1050      0.1365
         5         0.0075      0.0478      0.0779
 Ground to excited state transition velocity quadrupole moments (Au):
       state          XX          YY          ZZ          XY          XZ          YZ
         1        -0.0737     -0.0171      0.0363      0.0882     -0.0729     -0.0980
         2         0.0132      0.0112     -0.0075     -0.0057     -0.0130      0.0060
         3        -0.0828      0.0582     -0.0851     -0.0489     -0.0021      0.0668
         4        -0.1997      0.0574      0.0872      0.1685     -0.1792     -0.1433
         5        -0.0051      0.0060      0.0001      0.0109     -0.0105      0.0024
 <0|del|b> * <b|rxdel|0> + <0|del|b> * <b|delr+rdel|0>
 Rotatory Strengths (R) in cgs (10**-40 erg-esu-cm/Gauss)
       state          XX          YY          ZZ    R(velocity)    E-M Angle
         1         9.2188     28.6310    -72.7445    -11.6316       92.99
         2         0.0761      1.7683      1.5091      1.1179       42.36
         3        -1.5885     10.5117     -8.8972      0.0087       90.00
         4        -0.8233      2.6091     -2.7059     -0.3067       91.30
         5        -0.0771      0.4602     -0.2551      0.0426       90.00
 1/2[<0|r|b>*<b|rxdel|0> + (<0|rxdel|b>*<b|r|0>)*]
 Rotatory Strengths (R) in cgs (10**-40 erg-esu-cm/Gauss)
       state          XX          YY          ZZ     R(length)
         1       -58.3004     -8.4721     26.7232    -13.3498
         2         3.2874      0.1361      0.3289      1.2508
         3         3.9939     -5.8170      2.7307      0.3025
         4        -4.0196    -15.4992     19.0380     -0.1603
         5         0.2355     -0.7675      0.8380      0.1020
  1/2[<0|del|b>*<b|r|0> + (<0|r|b>*<b|del|0>)*] (Au)
       state          X           Y           Z        Dip. S.   Osc.(frdel)
         1        -0.1145     -0.0000     -0.0005      0.1150      0.0767
         2        -0.0007     -0.0000     -0.0000      0.0007      0.0005
         3        -0.0129     -0.0022     -0.0001      0.0152      0.0101
         4        -0.0022     -0.0054     -0.0045      0.0121      0.0081
         5        -0.0002     -0.0001     -0.0000      0.0003      0.0002

 Excitation energies and oscillator strengths:
 
 Excited State   1:      Singlet-A      2.3093 eV  536.89 nm  f=0.0774  <S**2>=0.000
     251 -> 253        0.69903
 This state for optimization and/or second-order correction.
 Total Energy, E(TD-HF/TD-DFT) =  -2925.33416369    
 Copying the excited state density for this state as the 1-particle RhoCI density.
 
 Excited State   2:      Singlet-A      2.3927 eV  518.18 nm  f=0.0005  <S**2>=0.000
     251 -> 252        0.70576
 
 Excited State   3:      Singlet-A      3.0636 eV  404.71 nm  f=0.0102  <S**2>=0.000
     251 -> 254        0.69800
 
 Excited State   4:      Singlet-A      3.1674 eV  391.44 nm  f=0.0080  <S**2>=0.000
     250 -> 253        0.69859
 
 Excited State   5:      Singlet-A      3.2369 eV  383.03 nm  f=0.0002  <S**2>=0.000
     250 -> 252        0.70372
 SavETr:  write IOETrn=   770 NScale= 10 NData=  16 NLR=1 NState=    5 LETran=     100.
 Hyperfine terms turned off by default for NAtoms > 100.

 **********************************************************************

            Population analysis using the SCF Density.

 **********************************************************************

 Orbital symmetries:
       Occupied  (A) (A) (A) (A) (A) (A) (A) (A) (A) (A) (A) (A)
                 (A) (A) (A) (A) (A) (A) (A) (A) (A) (A) (A) (A)
                 (A) (A) (A) (A) (A) (A) (A) (A) (A) (A) (A) (A)
                 (A) (A) (A) (A) (A) (A) (A) (A) (A) (A) (A) (A)
                 (A) (A) (A) (A) (A) (A) (A) (A) (A) (A) (A) (A)
                 (A) (A) (A) (A) (A) (A) (A) (A) (A) (A) (A) (A)
                 (A) (A) (A) (A) (A) (A) (A) (A) (A) (A) (A) (A)
                 (A) (A) (A) (A) (A) (A) (A) (A) (A) (A) (A) (A)
                 (A) (A) (A) (A) (A) (A) (A) (A) (A) (A) (A) (A)
                 (A) (A) (A) (A) (A) (A) (A) (A) (A) (A) (A) (A)
                 (A) (A) (A) (A) (A) (A) (A) (A) (A) (A) (A) (A)
                 (A) (A) (A) (A) (A) (A) (A) (A) (A) (A) (A) (A)
                 (A) (A) (A) (A) (A) (A) (A) (A) (A) (A) (A) (A)
                 (A) (A) (A) (A) (A) (A) (A) (A) (A) (A) (A) (A)
                 (A) (A) (A) (A) (A) (A) (A) (A) (A) (A) (A) (A)
                 (A) (A) (A) (A) (A) (A) (A) (A) (A) (A) (A) (A)
                 (A) (A) (A) (A) (A) (A) (A) (A) (A) (A) (A) (A)
                 (A) (A) (A) (A) (A) (A) (A) (A) (A) (A) (A) (A)
                 (A) (A) (A) (A) (A) (A) (A) (A) (A) (A) (A) (A)
                 (A) (A) (A) (A) (A) (A) (A) (A) (A) (A) (A) (A)
                 (A) (A) (A) (A) (A) (A) (A) (A) (A) (A) (A)
       Virtual   (A) (A) (A) (A) (A) (A) (A) (A) (A) (A) (A) (A)
                 (A) (A) (A) (A) (A) (A) (A) (A) (A) (A) (A) (A)
                 (A) (A) (A) (A) (A) (A) (A) (A) (A) (A) (A) (A)
                 (A) (A) (A) (A) (A) (A) (A) (A) (A) (A) (A) (A)
                 (A) (A) (A) (A) (A) (A) (A) (A) (A) (A) (A) (A)
                 (A) (A) (A) (A) (A) (A) (A) (A) (A) (A) (A) (A)
                 (A) (A) (A) (A) (A) (A) (A) (A) (A) (A) (A) (A)
                 (A) (A) (A) (A) (A) (A) (A) (A) (A) (A) (A) (A)
                 (A) (A) (A) (A) (A) (A) (A) (A) (A) (A) (A) (A)
                 (A) (A) (A) (A) (A) (A) (A) (A) (A) (A) (A) (A)
                 (A) (A) (A) (A) (A) (A) (A) (A) (A) (A) (A) (A)
                 (A) (A) (A) (A) (A) (A) (A) (A) (A) (A) (A) (A)
                 (A) (A) (A) (A) (A) (A) (A) (A) (A) (A) (A) (A)
                 (A) (A) (A) (A) (A) (A) (A) (A) (A) (A) (A) (A)
                 (A) (A) (A) (A) (A) (A) (A) (A) (A) (A) (A) (A)
                 (A) (A) (A) (A) (A) (A) (A) (A) (A) (A) (A) (A)
                 (A) (A) (A) (A) (A) (A) (A) (A) (A) (A) (A) (A)
                 (A) (A) (A) (A) (A) (A) (A) (A) (A) (A) (A) (A)
                 (A) (A) (A) (A) (A) (A) (A) (A) (A) (A) (A) (A)
                 (A) (A) (A) (A) (A) (A) (A) (A) (A) (A) (A) (A)
                 (A) (A) (A) (A) (A) (A) (A) (A) (A) (A) (A) (A)
                 (A) (A) (A) (A) (A) (A) (A) (A) (A) (A) (A) (A)
                 (A) (A) (A) (A) (A) (A) (A) (A) (A) (A) (A) (A)
                 (A) (A) (A) (A) (A) (A) (A) (A) (A) (A) (A) (A)
                 (A) (A) (A) (A) (A) (A) (A) (A) (A) (A) (A) (A)
                 (A) (A) (A) (A) (A) (A) (A) (A) (A) (A) (A) (A)
                 (A) (A) (A) (A) (A) (A) (A) (A) (A) (A) (A) (A)
                 (A) (A) (A) (A) (A) (A) (A) (A) (A) (A) (A) (A)
                 (A) (A) (A) (A) (A) (A) (A) (A) (A) (A) (A) (A)
                 (A) (A) (A) (A) (A) (A) (A) (A) (A) (A) (A) (A)
                 (A) (A) (A) (A) (A) (A) (A) (A) (A) (A) (A) (A)
                 (A) (A) (A) (A) (A) (A) (A) (A) (A) (A) (A) (A)
                 (A) (A) (A) (A) (A) (A) (A) (A) (A) (A) (A) (A)
                 (A) (A) (A) (A) (A) (A) (A) (A) (A) (A) (A) (A)
                 (A) (A) (A) (A) (A) (A) (A) (A) (A) (A) (A) (A)
                 (A) (A) (A) (A) (A) (A) (A) (A) (A) (A) (A) (A)
                 (A) (A) (A) (A) (A) (A) (A) (A) (A) (A) (A) (A)
                 (A) (A) (A) (A) (A) (A) (A) (A) (A) (A) (A) (A)
                 (A) (A) (A) (A) (A) (A) (A) (A) (A) (A) (A) (A)
                 (A) (A) (A) (A) (A) (A) (A) (A) (A) (A) (A) (A)
                 (A) (A) (A) (A) (A) (A) (A) (A) (A) (A) (A) (A)
                 (A) (A) (A) (A) (A) (A) (A) (A) (A) (A) (A) (A)
                 (A) (A) (A) (A) (A) (A) (A) (A) (A) (A) (A) (A)
                 (A) (A) (A) (A) (A) (A) (A) (A) (A) (A) (A) (A)
                 (A) (A) (A) (A) (A) (A) (A) (A) (A) (A) (A) (A)
                 (A) (A) (A) (A) (A) (A) (A) (A) (A) (A) (A) (A)
                 (A) (A) (A) (A) (A) (A) (A) (A) (A) (A) (A) (A)
                 (A) (A) (A) (A) (A) (A) (A) (A) (A) (A) (A) (A)
                 (A) (A) (A) (A) (A) (A) (A) (A) (A) (A) (A) (A)
                 (A) (A) (A) (A) (A) (A) (A) (A) (A) (A) (A) (A)
                 (A) (A) (A) (A) (A) (A) (A) (A) (A) (A) (A) (A)
                 (A) (A) (A) (A) (A) (A) (A) (A) (A) (A) (A) (A)
                 (A) (A) (A) (A) (A) (A) (A) (A) (A) (A) (A) (A)
                 (A) (A) (A) (A) (A) (A) (A) (A) (A) (A) (A) (A)
                 (A) (A) (A) (A) (A) (A) (A) (A) (A) (A) (A) (A)
                 (A) (A) (A) (A) (A) (A) (A) (A) (A) (A) (A) (A)
                 (A) (A) (A) (A) (A) (A) (A) (A) (A) (A) (A) (A)
                 (A) (A) (A) (A) (A) (A) (A) (A) (A) (A) (A) (A)
                 (A) (A) (A) (A) (A) (A) (A) (A) (A) (A) (A) (A)
                 (A) (A) (A) (A) (A) (A) (A) (A) (A) (A) (A) (A)
                 (A) (A) (A) (A) (A) (A) (A) (A) (A) (A) (A) (A)
                 (A) (A) (A) (A) (A) (A) (A) (A) (A) (A) (A) (A)
                 (A) (A) (A) (A) (A) (A) (A) (A) (A) (A) (A) (A)
                 (A) (A) (A) (A) (A) (A) (A) (A) (A) (A) (A) (A)
                 (A) (A) (A) (A) (A) (A) (A) (A) (A) (A) (A) (A)
                 (A) (A) (A) (A) (A) (A) (A) (A) (A) (A) (A) (A)
                 (A) (A) (A) (A) (A) (A) (A) (A) (A) (A) (A) (A)
                 (A) (A) (A) (A) (A) (A) (A) (A) (A) (A) (A) (A)
                 (A) (A) (A) (A) (A) (A) (A) (A) (A) (A) (A) (A)
                 (A) (A) (A) (A) (A) (A) (A) (A) (A) (A) (A) (A)
                 (A) (A) (A) (A) (A) (A) (A) (A) (A) (A) (A) (A)
                 (A) (A) (A) (A) (A) (A) (A) (A) (A) (A) (A) (A)
                 (A) (A) (A) (A) (A) (A) (A) (A) (A) (A) (A) (A)
                 (A) (A) (A) (A) (A) (A) (A) (A) (A) (A) (A) (A)
                 (A) (A) (A) (A) (A) (A) (A) (A) (A) (A) (A) (A)
                 (A) (A) (A) (A) (A) (A) (A) (A) (A) (A) (A) (A)
                 (A) (A) (A) (A) (A) (A) (A) (A) (A) (A) (A) (A)
                 (A) (A) (A) (A) (A) (A) (A) (A) (A) (A) (A) (A)
                 (A) (A) (A) (A) (A) (A) (A) (A) (A) (A) (A) (A)
                 (A) (A) (A) (A) (A) (A) (A) (A) (A) (A) (A) (A)
                 (A) (A) (A) (A) (A) (A) (A) (A) (A) (A) (A) (A)
                 (A) (A) (A) (A) (A) (A) (A) (A) (A) (A) (A) (A)
                 (A) (A) (A) (A) (A) (A) (A) (A) (A) (A) (A) (A)
                 (A) (A) (A) (A) (A) (A) (A) (A) (A) (A) (A) (A)
                 (A) (A) (A) (A) (A) (A) (A) (A) (A) (A) (A) (A)
                 (A) (A) (A) (A) (A) (A) (A) (A) (A) (A) (A) (A)
                 (A) (A) (A) (A) (A) (A) (A) (A) (A) (A) (A) (A)
                 (A) (A) (A) (A) (A) (A) (A) (A) (A) (A) (A) (A)
                 (A) (A) (A) (A) (A) (A) (A) (A) (A) (A) (A) (A)
                 (A) (A) (A) (A) (A) (A) (A) (A) (A) (A) (A) (A)
                 (A) (A) (A) (A) (A) (A) (A) (A) (A) (A) (A) (A)
                 (A) (A) (A) (A) (A) (A) (A) (A) (A) (A) (A) (A)
                 (A) (A) (A) (A) (A) (A) (A) (A) (A) (A) (A) (A)
                 (A) (A) (A) (A) (A) (A) (A) (A) (A) (A) (A) (A)
                 (A) (A) (A) (A) (A) (A) (A) (A) (A) (A) (A) (A)
                 (A) (A) (A) (A) (A) (A) (A) (A) (A) (A) (A) (A)
                 (A) (A) (A) (A) (A) (A) (A) (A) (A) (A) (A) (A)
                 (A) (A) (A) (A) (A) (A) (A) (A) (A) (A) (A) (A)
                 (A) (A) (A) (A) (A) (A) (A) (A) (A) (A) (A) (A)
                 (A) (A) (A) (A) (A) (A) (A) (A) (A) (A) (A) (A)
                 (A) (A) (A) (A) (A) (A) (A) (A) (A) (A) (A) (A)
                 (A) (A) (A) (A) (A) (A) (A) (A) (A) (A) (A) (A)
                 (A) (A) (A) (A) (A) (A) (A) (A) (A) (A) (A) (A)
                 (A) (A) (A) (A) (A) (A) (A) (A) (A) (A) (A) (A)
                 (A) (A) (A) (A) (A) (A) (A) (A) (A) (A) (A) (A)
                 (A) (A) (A) (A) (A) (A) (A) (A) (A) (A) (A) (A)
                 (A) (A) (A) (A) (A) (A) (A) (A) (A) (A) (A) (A)
                 (A) (A) (A) (A) (A) (A) (A) (A) (A) (A) (A) (A)
                 (A) (A) (A) (A) (A) (A) (A) (A) (A) (A) (A) (A)
                 (A) (A) (A) (A) (A) (A) (A) (A) (A) (A) (A) (A)
                 (A) (A) (A) (A) (A) (A) (A) (A) (A) (A) (A) (A)
                 (A) (A) (A) (A) (A) (A) (A) (A) (A) (A) (A) (A)
                 (A) (A) (A) (A) (A) (A) (A) (A) (A) (A) (A) (A)
                 (A) (A) (A) (A) (A) (A) (A) (A) (A) (A) (A) (A)
                 (A) (A) (A) (A) (A) (A) (A) (A) (A) (A) (A) (A)
                 (A) (A) (A) (A) (A) (A) (A) (A) (A) (A) (A) (A)
                 (A) (A) (A) (A) (A) (A) (A)
 The electronic state is 1-A.
 Alpha  occ. eigenvalues --  -14.45845 -14.45680 -14.45621 -14.45349 -14.38553
 Alpha  occ. eigenvalues --  -14.38481 -14.38376 -14.35641 -10.31315 -10.31290
 Alpha  occ. eigenvalues --  -10.31143 -10.28728 -10.28460 -10.27238 -10.26984
 Alpha  occ. eigenvalues --  -10.26944 -10.26901 -10.26845 -10.26708 -10.25909
 Alpha  occ. eigenvalues --  -10.25812 -10.24387 -10.24252 -10.23798 -10.23780
 Alpha  occ. eigenvalues --  -10.23728 -10.23546 -10.23520 -10.23485 -10.23482
 Alpha  occ. eigenvalues --  -10.23466 -10.23444 -10.23404 -10.23401 -10.23294
 Alpha  occ. eigenvalues --  -10.23189 -10.23152 -10.23103 -10.23032 -10.22943
 Alpha  occ. eigenvalues --  -10.22893 -10.22681 -10.22625 -10.22623 -10.22372
 Alpha  occ. eigenvalues --  -10.22359 -10.21969 -10.21710 -10.21672 -10.20992
 Alpha  occ. eigenvalues --  -10.20940 -10.20876 -10.20784 -10.20667 -10.20658
 Alpha  occ. eigenvalues --  -10.20501 -10.20493 -10.20456 -10.20289 -10.20242
 Alpha  occ. eigenvalues --  -10.20064 -10.19975 -10.19884 -10.19841 -10.19783
 Alpha  occ. eigenvalues --  -10.19775 -10.19709 -10.19665 -10.19242  -3.49983
 Alpha  occ. eigenvalues --   -2.17647  -2.17465  -2.14343  -1.08911  -1.08620
 Alpha  occ. eigenvalues --   -1.05984  -0.98095  -0.97498  -0.96260  -0.94206
 Alpha  occ. eigenvalues --   -0.94086  -0.89491  -0.89230  -0.89113  -0.88729
 Alpha  occ. eigenvalues --   -0.86867  -0.86341  -0.84000  -0.83124  -0.82915
 Alpha  occ. eigenvalues --   -0.81853  -0.81127  -0.80618  -0.80489  -0.80049
 Alpha  occ. eigenvalues --   -0.79358  -0.78181  -0.78126  -0.77948  -0.77292
 Alpha  occ. eigenvalues --   -0.77062  -0.76589  -0.75584  -0.74905  -0.74751
 Alpha  occ. eigenvalues --   -0.72218  -0.71811  -0.70637  -0.70431  -0.69765
 Alpha  occ. eigenvalues --   -0.69695  -0.69661  -0.69252  -0.69117  -0.68954
 Alpha  occ. eigenvalues --   -0.67712  -0.65506  -0.65218  -0.64387  -0.64001
 Alpha  occ. eigenvalues --   -0.63764  -0.63186  -0.62820  -0.61585  -0.61277
 Alpha  occ. eigenvalues --   -0.60738  -0.60602  -0.60413  -0.59790  -0.59409
 Alpha  occ. eigenvalues --   -0.59332  -0.58626  -0.58075  -0.57056  -0.56689
 Alpha  occ. eigenvalues --   -0.56665  -0.55854  -0.54054  -0.53972  -0.53648
 Alpha  occ. eigenvalues --   -0.52457  -0.51347  -0.50902  -0.50553  -0.50385
 Alpha  occ. eigenvalues --   -0.50331  -0.50051  -0.49662  -0.49350  -0.48887
 Alpha  occ. eigenvalues --   -0.48715  -0.48408  -0.48190  -0.48032  -0.47605
 Alpha  occ. eigenvalues --   -0.47418  -0.47081  -0.46941  -0.46893  -0.46671
 Alpha  occ. eigenvalues --   -0.46425  -0.46295  -0.46230  -0.46047  -0.44961
 Alpha  occ. eigenvalues --   -0.44700  -0.44637  -0.44585  -0.44501  -0.44429
 Alpha  occ. eigenvalues --   -0.44354  -0.44266  -0.44004  -0.43829  -0.43478
 Alpha  occ. eigenvalues --   -0.43301  -0.42835  -0.42707  -0.42665  -0.42204
 Alpha  occ. eigenvalues --   -0.41847  -0.41559  -0.41222  -0.41113  -0.40865
 Alpha  occ. eigenvalues --   -0.40717  -0.40540  -0.40284  -0.39915  -0.39781
 Alpha  occ. eigenvalues --   -0.39285  -0.39097  -0.38967  -0.38802  -0.38662
 Alpha  occ. eigenvalues --   -0.38542  -0.38332  -0.37984  -0.37737  -0.37561
 Alpha  occ. eigenvalues --   -0.37502  -0.37083  -0.36940  -0.36841  -0.36723
 Alpha  occ. eigenvalues --   -0.36496  -0.36436  -0.36300  -0.36219  -0.35739
 Alpha  occ. eigenvalues --   -0.35607  -0.35304  -0.35061  -0.34823  -0.34549
 Alpha  occ. eigenvalues --   -0.34510  -0.34339  -0.33920  -0.33767  -0.33497
 Alpha  occ. eigenvalues --   -0.33298  -0.33109  -0.32949  -0.32597  -0.32447
 Alpha  occ. eigenvalues --   -0.32148  -0.31753  -0.31599  -0.31364  -0.31104
 Alpha  occ. eigenvalues --   -0.30522  -0.29926  -0.28290  -0.28165  -0.28064
 Alpha  occ. eigenvalues --   -0.27852  -0.27792  -0.27747  -0.27447  -0.27159
 Alpha  occ. eigenvalues --   -0.26648  -0.26582  -0.26123  -0.25741  -0.25511
 Alpha  occ. eigenvalues --   -0.23846  -0.23209  -0.22890  -0.22276  -0.20555
 Alpha  occ. eigenvalues --   -0.17597
 Alpha virt. eigenvalues --   -0.07296  -0.07095  -0.03489  -0.02793  -0.02486
 Alpha virt. eigenvalues --   -0.01525  -0.01167  -0.01056  -0.00306   0.01430
 Alpha virt. eigenvalues --    0.01633   0.01926   0.02158   0.02410   0.02824
 Alpha virt. eigenvalues --    0.03410   0.03702   0.03928   0.04252   0.04327
 Alpha virt. eigenvalues --    0.05090   0.05216   0.05536   0.05690   0.05984
 Alpha virt. eigenvalues --    0.06353   0.06545   0.06683   0.07117   0.07157
 Alpha virt. eigenvalues --    0.07609   0.07894   0.08054   0.08153   0.08515
 Alpha virt. eigenvalues --    0.08913   0.09241   0.09376   0.09657   0.09879
 Alpha virt. eigenvalues --    0.10263   0.10356   0.10659   0.10804   0.11025
 Alpha virt. eigenvalues --    0.11057   0.11251   0.11442   0.11624   0.11741
 Alpha virt. eigenvalues --    0.11899   0.12174   0.12375   0.12695   0.12978
 Alpha virt. eigenvalues --    0.13238   0.13559   0.13657   0.13860   0.13945
 Alpha virt. eigenvalues --    0.14356   0.14483   0.14596   0.14946   0.14958
 Alpha virt. eigenvalues --    0.15169   0.15550   0.15844   0.15919   0.16233
 Alpha virt. eigenvalues --    0.16386   0.16598   0.16826   0.16931   0.17117
 Alpha virt. eigenvalues --    0.17304   0.17461   0.17563   0.17694   0.17907
 Alpha virt. eigenvalues --    0.18051   0.18208   0.18466   0.18551   0.18870
 Alpha virt. eigenvalues --    0.18986   0.19142   0.19432   0.19583   0.19737
 Alpha virt. eigenvalues --    0.20015   0.20096   0.20140   0.20507   0.20996
 Alpha virt. eigenvalues --    0.21183   0.21329   0.21483   0.21697   0.21791
 Alpha virt. eigenvalues --    0.22014   0.22092   0.22484   0.22672   0.23184
 Alpha virt. eigenvalues --    0.23212   0.23454   0.23563   0.23651   0.23799
 Alpha virt. eigenvalues --    0.24286   0.24638   0.24690   0.24840   0.25301
 Alpha virt. eigenvalues --    0.25438   0.25590   0.25690   0.25882   0.25954
 Alpha virt. eigenvalues --    0.26016   0.26136   0.26440   0.26557   0.26753
 Alpha virt. eigenvalues --    0.27008   0.27250   0.27312   0.27516   0.27634
 Alpha virt. eigenvalues --    0.27920   0.28291   0.28572   0.28725   0.28973
 Alpha virt. eigenvalues --    0.29032   0.29334   0.29545   0.29911   0.30276
 Alpha virt. eigenvalues --    0.30382   0.30433   0.30640   0.30764   0.30877
 Alpha virt. eigenvalues --    0.31166   0.31441   0.31670   0.32046   0.32229
 Alpha virt. eigenvalues --    0.32442   0.32790   0.33123   0.33188   0.33499
 Alpha virt. eigenvalues --    0.33631   0.33943   0.34076   0.34442   0.34750
 Alpha virt. eigenvalues --    0.35015   0.35432   0.35631   0.35822   0.36101
 Alpha virt. eigenvalues --    0.36255   0.36372   0.36733   0.36812   0.37101
 Alpha virt. eigenvalues --    0.37319   0.37384   0.37642   0.37823   0.38066
 Alpha virt. eigenvalues --    0.38498   0.38642   0.38839   0.38992   0.39349
 Alpha virt. eigenvalues --    0.39442   0.39596   0.39737   0.39906   0.40121
 Alpha virt. eigenvalues --    0.40374   0.40570   0.40893   0.40943   0.41176
[...]
 Alpha virt. eigenvalues --    2.13558   2.13738   2.14262   2.14440   2.14704
 Alpha virt. eigenvalues --    2.14973   2.15420   2.15928   2.16699   2.16913
 Alpha virt. eigenvalues --    2.17399   2.17529   2.18324   2.18492   2.18851
 Alpha virt. eigenvalues --    2.19355   2.19689   2.20079   2.20367   2.21121
 Alpha virt. eigenvalues --    2.21544   2.21861   2.22017   2.22218   2.22564
 Alpha virt. eigenvalues --    2.22968   2.23528   2.23759   2.24232   2.24951
 Alpha virt. eigenvalues --    2.25396   2.25803   2.26192   2.26572   2.26857
 Alpha virt. eigenvalues --    2.27943   2.28089   2.28579   2.28668   2.29338
 Alpha virt. eigenvalues --    2.30024   2.30776   2.31607   2.31826   2.32011
 Alpha virt. eigenvalues --    2.32643   2.33191   2.33310   2.33526   2.33805
 Alpha virt. eigenvalues --    2.33966   2.34419   2.34761   2.35320   2.35494
 Alpha virt. eigenvalues --    2.35876   2.35926   2.36180   2.36540   2.36704
 Alpha virt. eigenvalues --    2.37036   2.38584   2.38701   2.39244   2.39364
 Alpha virt. eigenvalues --    2.39620   2.40324   2.40460   2.40557   2.40839
 Alpha virt. eigenvalues --    2.41247   2.41632   2.41900   2.42109   2.42537
 Alpha virt. eigenvalues --    2.43113   2.43628   2.43896   2.44078   2.44119
 Alpha virt. eigenvalues --    2.44520   2.44697   2.44805   2.45025   2.45528
 Alpha virt. eigenvalues --    2.45894   2.46101   2.46672   2.47086   2.47365
 Alpha virt. eigenvalues --    2.48071   2.48687   2.49226   2.49814   2.50115
 Alpha virt. eigenvalues --    2.50470   2.50906   2.51280   2.51439   2.51721
 Alpha virt. eigenvalues --    2.51845   2.52198   2.52396   2.52639   2.52794
 Alpha virt. eigenvalues --    2.53146   2.53470   2.53743   2.53986   2.54238
 Alpha virt. eigenvalues --    2.54510   2.54667   2.54733   2.55014   2.55143
 Alpha virt. eigenvalues --    2.55420   2.55870   2.56164   2.56750   2.57488
 Alpha virt. eigenvalues --    2.57597   2.58031   2.58071   2.58348   2.58495
 Alpha virt. eigenvalues --    2.58833   2.59027   2.59422   2.59543   2.59807
 Alpha virt. eigenvalues --    2.59861   2.60274   2.60495   2.60756   2.60932
 Alpha virt. eigenvalues --    2.60972   2.61339   2.61428   2.61628   2.61844
 Alpha virt. eigenvalues --    2.61860   2.61988   2.62354   2.62640   2.62875
 Alpha virt. eigenvalues --    2.63070   2.63304   2.63634   2.63929   2.64033
 Alpha virt. eigenvalues --    2.64686   2.64772   2.64942   2.65088   2.65762
 Alpha virt. eigenvalues --    2.65932   2.66067   2.66189   2.66636   2.66715
 Alpha virt. eigenvalues --    2.67144   2.67371   2.67749   2.68011   2.68418
 Alpha virt. eigenvalues --    2.68610   2.69099   2.69222   2.69463   2.69620
 Alpha virt. eigenvalues --    2.69854   2.70338   2.70618   2.70872   2.70999
 Alpha virt. eigenvalues --    2.71298   2.71364   2.71941   2.72110   2.72328
 Alpha virt. eigenvalues --    2.72490   2.72653   2.73032   2.73400   2.73594
 Alpha virt. eigenvalues --    2.73808   2.73885   2.74113   2.74301   2.74457
 Alpha virt. eigenvalues --    2.74677   2.75060   2.75296   2.75481   2.75629
 Alpha virt. eigenvalues --    2.75820   2.76212   2.76466   2.76516   2.76751
 Alpha virt. eigenvalues --    2.76935   2.77211   2.77656   2.78099   2.78341
 Alpha virt. eigenvalues --    2.78881   2.79217   2.79342   2.79933   2.79951
 Alpha virt. eigenvalues --    2.80644   2.81018   2.81240   2.81627   2.81785
 Alpha virt. eigenvalues --    2.81953   2.82343   2.82512   2.82847   2.83287
 Alpha virt. eigenvalues --    2.83386   2.83905   2.84303   2.84571   2.84924
 Alpha virt. eigenvalues --    2.85529   2.85612   2.85824   2.86133   2.86932
 Alpha virt. eigenvalues --    2.87195   2.87434   2.87654   2.87808   2.88474
 Alpha virt. eigenvalues --    2.89232   2.89412   2.89583   2.90382   2.90680
 Alpha virt. eigenvalues --    2.91040   2.91352   2.91575   2.91979   2.92380
 Alpha virt. eigenvalues --    2.92700   2.93186   2.94148   2.94463   2.94585
 Alpha virt. eigenvalues --    2.94665   2.95188   2.95456   2.96117   2.96206
 Alpha virt. eigenvalues --    2.96967   2.97504   2.97755   2.97965   2.98630
 Alpha virt. eigenvalues --    2.98890   2.99353   2.99724   3.00021   3.00882
 Alpha virt. eigenvalues --    3.00919   3.01495   3.02102   3.02450   3.03161
 Alpha virt. eigenvalues --    3.03816   3.04068   3.04578   3.05082   3.05207
 Alpha virt. eigenvalues --    3.05968   3.06686   3.06957   3.07603   3.07943
 Alpha virt. eigenvalues --    3.08367   3.09101   3.09462   3.09542   3.10122
 Alpha virt. eigenvalues --    3.10253   3.10479   3.11512   3.11680   3.12345
 Alpha virt. eigenvalues --    3.13365   3.16159   3.16718   3.16979   3.17488
 Alpha virt. eigenvalues --    3.17907   3.18036   3.19461   3.20100   3.20861
 Alpha virt. eigenvalues --    3.21903   3.22419   3.22816   3.22919   3.23923
 Alpha virt. eigenvalues --    3.24420   3.24930   3.25735   3.25893   3.26584
 Alpha virt. eigenvalues --    3.27383   3.28165   3.28241   3.28900   3.29602
 Alpha virt. eigenvalues --    3.30498   3.30868   3.31733   3.32382   3.33052
 Alpha virt. eigenvalues --    3.34499   3.35268   3.37250   3.38125   3.38495
 Alpha virt. eigenvalues --    3.38897   3.39003   3.39903   3.40934   3.41630
 Alpha virt. eigenvalues --    3.42446   3.43995   3.44662   3.44925   3.46123
 Alpha virt. eigenvalues --    3.47393   3.48361   3.48815   3.49066   3.50281
 Alpha virt. eigenvalues --    3.50381   3.50753   3.51052   3.51787   3.52436
 Alpha virt. eigenvalues --    3.52594   3.53201   3.54794   3.57561   3.57956
 Alpha virt. eigenvalues --    3.60461   3.61288   3.62491   3.63869   3.64041
 Alpha virt. eigenvalues --    3.64719   3.65051   3.65313   3.66261   3.68372
 Alpha virt. eigenvalues --    3.68950   3.70041   3.70331   3.70788   3.72300
 Alpha virt. eigenvalues --    3.73300   3.74486   3.75333   3.76055   3.76534
 Alpha virt. eigenvalues --    3.77592   3.77798   3.78982   3.80517   3.80797
 Alpha virt. eigenvalues --    3.81039   3.81564   3.82151   3.82214   3.82620
 Alpha virt. eigenvalues --    3.83397   3.83768   3.84268   3.84426   3.84654
 Alpha virt. eigenvalues --    3.84870   3.84996   3.85506   3.85751   3.86119
 Alpha virt. eigenvalues --    3.86368   3.86962   3.87708   3.87922   3.88778
 Alpha virt. eigenvalues --    3.89142   3.89488   3.89703   3.89878   3.90801
 Alpha virt. eigenvalues --    3.91302   3.91875   3.92938   3.94294   3.94395
 Alpha virt. eigenvalues --    3.96013   3.96528   3.98875   3.99924   4.00711
 Alpha virt. eigenvalues --    4.01224   4.02818   4.03397   4.04175   4.04293
 Alpha virt. eigenvalues --    4.06284   4.06624   4.10868   4.12112   4.13032
 Alpha virt. eigenvalues --    4.13597   4.14652   4.14707   4.14915   4.15805
 Alpha virt. eigenvalues --    4.16191   4.17901   4.18141   4.18905   4.21048
 Alpha virt. eigenvalues --    4.22221   4.22902   4.24469   4.26775   4.27157
 Alpha virt. eigenvalues --    4.28377   4.28726   4.29301   4.30124   4.32454
 Alpha virt. eigenvalues --    4.33004   4.33211   4.34031   4.39245   4.40163
 Alpha virt. eigenvalues --    4.43371   4.47608   4.53889   4.57066   4.58242
 Alpha virt. eigenvalues --    4.63264   4.69455   4.71271   4.72802   4.77655
 Alpha virt. eigenvalues --    4.86712   4.86811   4.87609   4.87807   4.90798
 Alpha virt. eigenvalues --    4.94679   5.00828   5.01789   5.08395   5.15583
 Alpha virt. eigenvalues --    5.17543   5.19719   5.30048   5.30736   5.33395
 Alpha virt. eigenvalues --    5.38480  23.63658  23.66435  23.68518  23.69825
 Alpha virt. eigenvalues --   23.80288  23.82685  23.84491  23.86327  23.92370
 Alpha virt. eigenvalues --   23.92685  23.93167  23.94306  23.94958  23.95665
 Alpha virt. eigenvalues --   23.97048  23.98900  23.99406  23.99873  24.00693
 Alpha virt. eigenvalues --   24.00999  24.01917  24.03111  24.03562  24.03856
 Alpha virt. eigenvalues --   24.03977  24.04208  24.04260  24.05252  24.05415
 Alpha virt. eigenvalues --   24.05646  24.05994  24.06239  24.06517  24.06873
 Alpha virt. eigenvalues --   24.08391  24.08675  24.08750  24.10167  24.10841
 Alpha virt. eigenvalues --   24.11913  24.12671  24.16380  24.17464  24.17747
 Alpha virt. eigenvalues --   24.17794  24.20141  24.20556  24.21186  24.21239
 Alpha virt. eigenvalues --   24.21515  24.24098  24.24759  24.26547  24.28278
 Alpha virt. eigenvalues --   24.29206  24.30151  24.30187  24.30250  24.30863
 Alpha virt. eigenvalues --   24.31956  24.32696  35.62976  35.65382  35.69409
 Alpha virt. eigenvalues --   35.73951  35.77556  35.84261  35.84976  35.85201
 Alpha virt. eigenvalues --   40.31744  40.84965  40.97327  52.18067
          Condensed to atoms (all electrons):
 Mulliken charges:
               1
     1  Pd   0.983584
     2  N   -0.377216
     3  N   -0.431468
     4  N   -0.429928
     5  N   -0.380823
     6  N   -0.705460
     7  N   -0.411273
     8  N   -0.418447
     9  N   -0.411805
    10  C   -0.356934
    11  H    0.172205
    12  H    0.115997
    13  H    0.109792
    14  C   -0.286538
    15  H    0.116074
    16  H    0.168710
    17  C   -0.268566
    18  H    0.187929
    19  H    0.127189
    20  C   -0.112524
    21  H    0.199279
    22  H    0.134387
    23  C   -0.008849
    24  H    0.142081
    25  C    0.023695
    26  H    0.145216
    27  C    0.118981
    28  C    0.287926
    29  C   -0.497852
    30  C    0.286558
    31  C   -0.109226
    32  H    0.112479
    33  C   -0.130906
    34  H    0.119622
    35  C   -0.133122
    36  H    0.115108
    37  C    0.107730
    38  C    0.023654
    39  H    0.144950
    40  C   -0.006469
    41  H    0.144976
    42  C   -0.138085
    43  H    0.154895
    44  H    0.213598
    45  C   -0.256381
    46  H    0.123434
    47  H    0.156090
    48  C   -0.292282
    49  H    0.189237
    50  H    0.121528
    51  C   -0.348061
    52  H    0.125349
    53  H    0.131822
    54  H    0.115146
    55  C   -0.185225
    56  H    0.132108
    57  C   -0.106855
    58  H    0.093199
    59  C   -0.001056
    60  C   -0.093856
    61  H    0.086375
    62  C   -0.113076
    63  C    0.216572
    64  C    0.241171
    65  C   -0.102929
    66  C   -0.019832
    67  H    0.085816
    68  C   -0.023204
    69  C   -0.046057
    70  H    0.092731
    71  C   -0.165764
    72  C   -0.324018
    73  C   -0.315625
    74  H    0.130790
    75  H    0.124274
    76  H    0.130266
    77  C   -0.267248
    78  H    0.132829
    79  H    0.116522
    80  H    0.117909
    81  C   -0.270562
    82  H    0.119646
    83  H    0.115824
    84  H    0.133042
    85  C   -0.335699
    86  C   -0.313158
    87  H    0.128750
    88  H    0.124958
    89  H    0.133350
    90  C   -0.259199
    91  H    0.119482
    92  H    0.116351
    93  H    0.122178
    94  C   -0.258804
    95  H    0.125379
    96  H    0.116077
    97  H    0.119485
    98  C   -0.068024
    99  C   -0.094593
   100  H    0.103760
   101  C   -0.026943
   102  H    0.120200
   103  C   -0.239080
   104  C   -0.034885
   105  H    0.134972
   106  C   -0.132528
   107  H    0.129661
   108  C    0.425411
   109  C    0.424472
   110  C    0.438312
   111  C   -0.296643
   112  C   -0.015649
   113  H    0.137590
   114  C   -0.127367
   115  H    0.114779
   116  C   -0.079360
   117  H    0.118073
   118  C   -0.124152
   119  H    0.116115
   120  C   -0.007700
   121  H    0.131993
   122  C   -0.275591
   123  C   -0.009038
   124  H    0.131462
   125  C   -0.125616
   126  H    0.115642
   127  C   -0.080093
   128  H    0.117353
   129  C   -0.130429
   130  H    0.113885
   131  C   -0.023671
   132  H    0.137758
 Sum of Mulliken charges =  -0.00000
 Mulliken charges with hydrogens summed into heavy atoms:
               1
     1  Pd   0.983584
     2  N   -0.377216
     3  N   -0.431468
     4  N   -0.429928
     5  N   -0.380823
     6  N   -0.705460
     7  N   -0.411273
     8  N   -0.418447
     9  N   -0.411805
    10  C    0.041061
    14  C   -0.001754
    17  C    0.046552
    20  C    0.221141
    23  C    0.133232
    25  C    0.168911
    27  C    0.118981
    28  C    0.287926
    29  C   -0.497852
    30  C    0.286558
    31  C    0.003253
    33  C   -0.011284
    35  C   -0.018014
    37  C    0.107730
    38  C    0.168603
    40  C    0.138507
    42  C    0.230408
    45  C    0.023143
    48  C    0.018483
    51  C    0.024256
    55  C   -0.053118
    57  C   -0.013655
    59  C   -0.001056
    60  C   -0.007481
    62  C   -0.113076
    63  C    0.216572
    64  C    0.241171
    65  C   -0.102929
    66  C    0.065984
    68  C   -0.023204
    69  C    0.046674
    71  C   -0.165764
    72  C   -0.324018
    73  C    0.069704
    77  C    0.100012
    81  C    0.097950
    85  C   -0.335699
    86  C    0.073901
    90  C    0.098813
    94  C    0.102137
    98  C   -0.068024
    99  C    0.009167
   101  C    0.093257
   103  C   -0.239080
   104  C    0.100088
   106  C   -0.002867
   108  C    0.425411
   109  C    0.424472
   110  C    0.438312
   111  C   -0.296643
   112  C    0.121941
   114  C   -0.012588
   116  C    0.038713
   118  C   -0.008037
   120  C    0.124293
   122  C   -0.275591
   123  C    0.122424
   125  C   -0.009974
   127  C    0.037260
   129  C   -0.016544
   131  C    0.114087
 Electronic spatial extent (au):  <R**2>=          57530.6879
 Charge=             -0.0000 electrons
 Dipole moment (field-independent basis, Debye):
    X=              5.6511    Y=              1.9663    Z=             -1.6534  Tot=              6.2077
 Quadrupole moment (field-independent basis, Debye-Ang):
   XX=           -412.1743   YY=           -372.9183   ZZ=           -429.4667
   XY=              4.6916   XZ=            -18.3573   YZ=             28.8215
 Traceless Quadrupole moment (field-independent basis, Debye-Ang):
   XX=             -7.3212   YY=             31.9347   ZZ=            -24.6136
   XY=              4.6916   XZ=            -18.3573   YZ=             28.8215
 Octapole moment (field-independent basis, Debye-Ang**2):
  XXX=            302.3715  YYY=            109.6603  ZZZ=            -49.9619  XYY=            142.5977
  XXY=             56.6764  XXZ=           -137.0013  XZZ=             11.6433  YZZ=              1.7584
  YYZ=             -5.8662  XYZ=             75.8341
 Hexadecapole moment (field-independent basis, Debye-Ang**3):
 XXXX=         -50363.7827 YYYY=         -16545.3875 ZZZZ=         -10236.4503 XXXY=            350.2513
 XXXZ=          -1144.8173 YYYX=            249.9648 YYYZ=            737.6289 ZZZX=           -127.6149
 ZZZY=            132.8774 XXYY=         -10997.3640 XXZZ=         -10561.9540 YYZZ=          -4375.3578
 XXYZ=            440.4096 YYXZ=           -187.1762 ZZXY=           -192.5562
 N-N= 1.197712159353D+04 E-N=-3.072997191945D+04  KE= 2.833899230176D+03
 Unable to Open any file for archive entry.
 1\1\GINC-CLUSTER\SP\RPBE1PBE TD-FC\GenECP\C61H62N8Pd1\xxxxxx\22-Jan-20
 26\0\\# td=(nstates=5) PBE1PBE/genecp scrf=(solvent=toluene) em=gd3bj\
 \s0-td\\0,1\Pd,0,-0.180394,0.572682,-0.557549\N,0,0.032922,-2.389388,-
 1.771757\N,0,1.735911,-1.101069,-1.935314\N,0,1.23511,3.045904,-0.0329
 2\N,0,-0.634349,3.349961,0.971518\N,0,-2.155474,0.079322,0.056884\N,0,
 4.258027,0.405134,1.551713\N,0,6.204062,-0.194866,0.360881\N,0,4.42162
 4,-1.729199,0.561191\C,0,-4.769187,-2.194051,-3.11989\H,0,-4.772875,-1
 .108664,-2.987778\H,0,-5.775517,-2.558472,-2.894373\H,0,-4.56291,-2.40
 965,-4.173971\C,0,-3.731875,-2.834795,-2.211119\H,0,-3.76852,-3.927978
 ,-2.306382\H,0,-3.972806,-2.601903,-1.167937\C,0,-2.323824,-2.342893,-
 2.513078\H,0,-2.300888,-1.249553,-2.464504\H,0,-2.028584,-2.630621,-3.
 530052\C,0,-1.314072,-2.882533,-1.515922\H,0,-1.591404,-2.584097,-0.50
 404\H,0,-1.270279,-3.974468,-1.545863\C,0,1.042898,-3.12081,-2.3699\H,
 0,0.90526,-4.146398,-2.669614\C,0,2.123701,-2.308006,-2.467952\H,0,3.1
 11943,-2.491639,-2.85437\C,0,0.439577,-1.14115,-1.490949\C,0,2.434904,
 0.111996,-1.739823\C,0,1.635765,1.043201,-1.100222\C,0,2.171815,2.2736
 13,-0.761308\C,0,3.47916,2.610942,-1.085381\H,0,3.912704,3.566548,-0.8
 12677\C,0,4.249854,1.659751,-1.7558\H,0,5.2776,1.898037,-2.004364\C,0,
 3.749899,0.398636,-2.084132\H,0,4.385742,-0.327399,-2.579164\C,0,0.010
 163,2.471001,0.18749\C,0,1.340823,4.258981,0.607861\H,0,2.228145,4.868
 374,0.571014\C,0,0.156207,4.454533,1.238069\H,0,-0.187802,5.274075,1.8
 46855\C,0,-1.997625,3.158213,1.447499\H,0,-2.006411,3.31816,2.53022\H,
 0,-2.240342,2.112584,1.25128\C,0,-2.989512,4.076682,0.754746\H,0,-2.76
 0407,5.123042,0.995121\H,0,-2.875038,3.961193,-0.32843\C,0,-4.423444,3
 .752676,1.148559\H,0,-4.660478,2.736818,0.812815\H,0,-4.512396,3.75124
 4,2.242566\C,0,-5.419097,4.736408,0.555143\H,0,-6.445249,4.479164,0.83
 0935\H,0,-5.360152,4.736188,-0.537188\H,0,-5.225089,5.756999,0.901998\
 C,0,-3.374729,1.430652,-1.655447\H,0,-2.476867,1.866537,-2.083854\C,0,
 -4.627496,1.729212,-2.159989\H,0,-4.690751,2.416391,-2.998532\C,0,-5.8
 17869,1.167887,-1.643979\C,0,-5.715018,0.287067,-0.574553\H,0,-6.60194
 3,-0.172963,-0.152895\C,0,-4.463839,-0.03267,-0.04125\C,0,-3.279461,0.
 535912,-0.582399\C,0,-2.59455,-0.798496,1.01483\C,0,-4.017271,-0.92066
 8,0.996761\C,0,-4.6639,-1.824499,1.833672\H,0,-5.747001,-1.902947,1.79
 4106\C,0,-3.934117,-2.638472,2.698029\C,0,-2.536138,-2.502313,2.710473
 \H,0,-1.943576,-3.109626,3.385282\C,0,-1.850632,-1.592289,1.910064\C,0
 ,-7.152162,1.508459,-2.306792\C,0,-8.33014,0.824317,-1.614109\H,0,-8.2
 43162,-0.265659,-1.652448\H,0,-9.262354,1.101695,-2.115313\H,0,-8.4112
 62,1.12645,-0.565544\C,0,-7.391376,3.023008,-2.264691\H,0,-7.447082,3.
 376336,-1.231672\H,0,-8.332513,3.274565,-2.765623\H,0,-6.589205,3.5728
 36,-2.764133\C,0,-7.123814,1.043535,-3.77005\H,0,-6.319336,1.528398,-4
 .329441\H,0,-8.071132,1.282225,-4.265836\H,0,-6.967287,-0.037384,-3.82
 8537\C,0,-4.665708,-3.641422,3.590514\C,0,-3.707803,-4.443935,4.470711
 \H,0,-2.998753,-5.024137,3.87249\H,0,-4.277651,-5.146815,5.085782\H,0,
 -3.139118,-3.796451,5.144762\C,0,-5.446704,-4.628685,2.71183\H,0,-6.18
 1214,-4.114422,2.086527\H,0,-5.981904,-5.355406,3.332751\H,0,-4.768439
 ,-5.175481,2.049887\C,0,-5.644987,-2.895528,4.506987\H,0,-5.1105,-2.18
 7918,5.14758\H,0,-6.183753,-3.601371,5.148564\H,0,-6.384141,-2.33286,3
 .930779\C,0,-0.381053,-1.471736,1.954129\C,0,0.45015,-2.533361,1.58357
 \H,0,0.00546,-3.496739,1.355349\C,0,1.809874,-2.338518,1.410262\H,0,2.
 442179,-3.137308,1.041547\C,0,2.375851,-1.082918,1.64471\C,0,1.571188,
 -0.053956,2.136868\H,0,2.019585,0.9118,2.334475\C,0,0.208136,-0.24416,
 2.276287\H,0,-0.425057,0.572089,2.60558\C,0,3.761466,-0.797714,1.25517
 7\C,0,5.631884,-1.377741,0.131448\C,0,5.47187,0.664526,1.073099\C,0,6.
 368351,-2.351332,-0.699306\C,0,5.769216,-3.562091,-1.056017\H,0,4.7692
 27,-3.772021,-0.695688\C,0,6.449062,-4.46695,-1.857851\H,0,5.979367,-5
 .405721,-2.131562\C,0,7.732373,-4.172975,-2.30853\H,0,8.263691,-4.8819
 36,-2.934736\C,0,8.333744,-2.969319,-1.954783\H,0,9.334613,-2.739386,-
 2.303987\C,0,7.655542,-2.060819,-1.155431\H,0,8.107093,-1.117627,-0.87
 2802\C,0,6.023618,2.012233,1.313202\C,0,7.273464,2.36579,0.802955\H,0,
 7.84017,1.623741,0.253731\C,0,7.768299,3.647894,0.994639\H,0,8.739827,
 3.917271,0.594425\C,0,7.020697,4.58636,1.698566\H,0,7.408861,5.588471,
 1.847818\C,0,5.77548,4.23715,2.213391\H,0,5.192744,4.965943,2.766941\C
 ,0,5.277763,2.957066,2.021723\H,0,4.307889,2.668515,2.408363\\Version=
 ES64L-G16RevC.02\State=1-A\HF=-2925.4190288\RMSD=3.724e-09\PG=C01 [X(C
 61H62N8Pd1)]\\@
 The archive entry for this job was punched.


 Ideas are like rabbits. You get a couple and learn
 how to handle them, and pretty soon you have a dozen.
                                    -- John Steinbeck
 Job cpu time:       1 days  1 hours 31 minutes 39.0 seconds.
 Elapsed time:       0 days  0 hours 18 minutes 23.3 seconds.
 File lengths (MBytes):  RWF=  14104 Int=      0 D2E=      0 Chk=    602 Scr=      1
 Normal termination of Gaussian 16 at Thu Jan 22 12:50:49 2026.
