 Entering Gaussian System, Link 0=g16
 Initial command:
 /public/software/g16/l1.exe "/tmp/Gau-21690.inp" -scrdir="/tmp/"
 Entering Link 1 = /public/software/g16/l1.exe PID=     21692.
  
 Copyright (c) 1988-2021, Gaussian, Inc.  All Rights Reserved.
  
 This is part of the Gaussian(R) 16 program.  It is based on
 the Gaussian(R) 09 system (copyright 2009, Gaussian, Inc.),
 the Gaussian(R) 03 system (copyright 2003, Gaussian, Inc.),
 the Gaussian(R) 98 system (copyright 1998, Gaussian, Inc.),
 the Gaussian(R) 94 system (copyright 1995, Gaussian, Inc.),
 the Gaussian 92(TM) system (copyright 1992, Gaussian, Inc.),
 the Gaussian 90(TM) system (copyright 1990, Gaussian, Inc.),
 the Gaussian 88(TM) system (copyright 1988, Gaussian, Inc.),
 the Gaussian 86(TM) system (copyright 1986, Carnegie Mellon
 University), and the Gaussian 82(TM) system (copyright 1983,
 Carnegie Mellon University). Gaussian is a federally registered
 trademark of Gaussian, Inc.
  
 This software contains proprietary and confidential information,
 including trade secrets, belonging to Gaussian, Inc.
  
 This software is provided under written license and may be
 used, copied, transmitted, or stored only in accord with that
 written license.
  
 The following legend is applicable only to US Government
 contracts under FAR:
  
                    RESTRICTED RIGHTS LEGEND
  
 Use, reproduction and disclosure by the US Government is
 subject to restrictions as set forth in subparagraphs (a)
 and (c) of the Commercial Computer Software - Restricted
 Rights clause in FAR 52.227-19.
  
 Gaussian, Inc.
 340 Quinnipiac St., Bldg. 40, Wallingford CT 06492
  
  
 ---------------------------------------------------------------
 Warning -- This program may not be used in any manner that
 competes with the business of Gaussian, Inc. or will provide
 assistance to any competitor of Gaussian, Inc.  The licensee
 of this program is prohibited from giving any competitor of
 Gaussian, Inc. access to this program.  By using this program,
 the user acknowledges that Gaussian, Inc. is engaged in the
 business of creating and licensing software in the field of
 computational chemistry and represents and warrants to the
 licensee that it is not a competitor of Gaussian, Inc. and that
 it will not use this program in any manner prohibited above.
 ---------------------------------------------------------------
  

 Cite this work as:
 Gaussian 16, Revision C.02,
 M. J. Frisch, G. W. Trucks, H. B. Schlegel, G. E. Scuseria, 
 M. A. Robb, J. R. Cheeseman, G. Scalmani, V. Barone, 
 G. A. Petersson, H. Nakatsuji, X. Li, M. Caricato, A. V. Marenich, 
 J. Bloino, B. G. Janesko, R. Gomperts, B. Mennucci, H. P. Hratchian, 
 J. V. Ortiz, A. F. Izmaylov, J. L. Sonnenberg, D. Williams-Young, 
 F. Ding, F. Lipparini, F. Egidi, J. Goings, B. Peng, A. Petrone, 
 T. Henderson, D. Ranasinghe, V. G. Zakrzewski, J. Gao, N. Rega, 
 G. Zheng, W. Liang, M. Hada, M. Ehara, K. Toyota, R. Fukuda, 
 J. Hasegawa, M. Ishida, T. Nakajima, Y. Honda, O. Kitao, H. Nakai, 
 T. Vreven, K. Throssell, J. A. Montgomery, Jr., J. E. Peralta, 
 F. Ogliaro, M. J. Bearpark, J. J. Heyd, E. N. Brothers, K. N. Kudin, 
 V. N. Staroverov, T. A. Keith, R. Kobayashi, J. Normand, 
 K. Raghavachari, A. P. Rendell, J. C. Burant, S. S. Iyengar, 
 J. Tomasi, M. Cossi, J. M. Millam, M. Klene, C. Adamo, R. Cammi, 
 J. W. Ochterski, R. L. Martin, K. Morokuma, O. Farkas, 
 J. B. Foresman, and D. J. Fox, Gaussian, Inc., Wallingford CT, 2019.
 
 ******************************************
 Gaussian 16:  ES64L-G16RevC.02  7-Dec-2021
                18-Jan-2026 
 ******************************************
 %nprocshared=96
 Will use up to   96 processors via shared memory.
 %mem=345GB
 %chk=s0.chk
 ---------------------------------------------------------
 # opt freq PBE1PBE/genecp scrf=(solvent=toluene) em=gd3bj
 ---------------------------------------------------------
 1/18=20,19=15,26=3,38=1/1,3;
 2/9=110,12=2,17=6,18=5,40=1/2;
 3/5=7,11=2,16=1,17=8,25=1,30=1,70=2201,71=1,72=13,74=-13,124=41/1,2,3;
 4//1;
 5/5=2,38=5,53=13/2;
 6/7=2,8=2,9=2,10=2,28=1/1;
 7//1,2,3,16;
 1/18=20,19=15,26=3/3(2);
 2/9=110/2;
 99//99;
 2/9=110/2;
 3/5=7,6=1,11=2,16=1,17=8,25=1,30=1,70=2205,71=1,72=13,74=-13,82=7,124=41/1,2,3;
 4/5=5,16=3,69=1/1;
 5/5=2,38=5,53=13/2;
 7//1,2,3,16;
 1/18=20,19=15,26=3/3(-5);
 2/9=110/2;
 6/7=2,8=2,9=2,10=2,19=2,28=1/1;
 99/9=1/99;
 -----------------------------------
 s0 opt
 -----------------------------------
 Symbolic Z-matrix:
 Charge =  0 Multiplicity = 1
 Pd                   -0.18024   0.57252  -0.55731 
 N                     0.03278  -2.38953  -1.77166 
 N                     1.73597  -1.10145  -1.93496 
 N                     1.23567   3.04542  -0.03222 
 N                    -0.63387   3.34974   0.97198 
 N                    -2.15542   0.07934   0.05695 
 N                     4.25786   0.40506   1.55155 
 N                     6.20372  -0.19492   0.36043 
 N                     4.42126  -1.72921   0.56088 
 C                    -4.7693   -2.19341  -3.11981 
 H                    -4.7728   -1.10804  -2.98757 
 H                    -5.77568  -2.5577   -2.89428 
 H                    -4.56311  -2.40893  -4.17392 
 C                    -3.73205  -2.83443  -2.21116 
 H                    -3.76883  -3.9276   -2.30661 
 H                    -3.97294  -2.60169  -1.16794 
 C                    -2.32395  -2.34265  -2.51305 
 H                    -2.30089  -1.24932  -2.46433 
 H                    -2.02872  -2.63027  -3.53006 
 C                    -1.31429  -2.88253  -1.51594 
 H                    -1.59161  -2.5842   -0.50403 
 H                    -1.27063  -3.97447  -1.54602 
 C                     1.0427   -3.12105  -2.36977 
 H                     0.90496  -4.1466   -2.66954 
 C                     2.12364  -2.3084   -2.46764 
 H                     3.1119   -2.49216  -2.85395 
 C                     0.43957  -1.14135  -1.49076 
 C                     2.43515   0.11148  -1.73927 
 C                     1.6361    1.04275  -1.09966 
 C                     2.17233   2.27303  -0.76056 
 C                     3.47975   2.61018  -1.0845 
 H                     3.91341   3.56571  -0.81172 
 C                     4.25035   1.65893  -1.75493 
 H                     5.27815   1.89708  -2.0034 
 C                     3.75022   0.39793  -2.08343 
 H                     4.38599  -0.32817  -2.57846 
 C                     0.01057   2.47074   0.18794 
 C                     1.34156   4.25837   0.60877 
 H                     2.22903   4.86756   0.57217 
 C                     0.15688   4.4541    1.23881 
 H                    -0.18703   5.27362   1.84767 
 C                    -1.99728   3.15824   1.44769 
 H                    -2.00622   3.31801   2.53044 
 H                    -2.24022   2.11271   1.25125 
 C                    -2.98881   4.07708   0.75491 
 H                    -2.7595    5.12334   0.99552 
 H                    -2.87414   3.96176  -0.32826 
 C                    -4.42291   3.75335   1.14835 
 H                    -4.66011   2.73762   0.81236 
 H                    -4.51211   3.75174   2.24233 
 C                    -5.41818   4.73743   0.55487 
 H                    -6.44445   4.48046   0.83046 
 H                    -5.35904   4.7373   -0.53745 
 H                    -5.22393   5.75793   0.90186 
 C                    -3.37447   1.43059  -1.65561 
 H                    -2.47655   1.8664   -2.08398 
 C                    -4.62718   1.7292   -2.16025 
 H                    -4.69033   2.41635  -2.99883 
 C                    -5.81763   1.16799  -1.64429 
 C                    -5.7149    0.28723  -0.5748 
 H                    -6.60188  -0.17271  -0.15317 
 C                    -4.46378  -0.03255  -0.04139 
 C                    -3.27933   0.53592  -0.58249 
 C                    -2.59463  -0.79839   1.0149 
 C                    -4.01736  -0.92048   0.99673 
 C                    -4.66409  -1.82422   1.83366 
 H                    -5.7472   -1.90261   1.79404 
 C                    -3.93441  -2.63818   2.69812 
 C                    -2.53643  -2.50211   2.71065 
 H                    -1.94395  -3.10943   3.38553 
 C                    -1.85082  -1.59217   1.91024 
 C                    -7.15186   1.50863  -2.30721 
 C                    -8.32993   0.82462  -1.61457 
 H                    -8.24302  -0.26537  -1.65281 
 H                    -9.26208   1.102    -2.11589 
 H                    -8.41113   1.12684  -0.56604 
 C                    -7.39097   3.0232   -2.2652 
 H                    -7.44674   3.37658  -1.2322 
 H                    -8.33204   3.2748   -2.76622 
 H                    -6.58872   3.57295  -2.7646 
 C                    -7.12344   1.04364  -3.77044 
 H                    -6.31889   1.52841  -4.32979 
 H                    -8.0707    1.28239  -4.26631 
 H                    -6.96701  -0.03729  -3.82887 
 C                    -4.66613  -3.64099   3.59066 
 C                    -3.70833  -4.44344   4.47103 
 H                    -2.99922  -5.02369   3.87293 
 H                    -4.27825  -5.14627   5.08609 
 H                    -3.13971  -3.79592   5.14509 
 C                    -5.44712  -4.62832   2.71206 
 H                    -6.18158  -4.11412   2.08666 
 H                    -5.98237  -5.35495   3.33305 
 H                    -4.76884  -5.17523   2.05022 
 C                    -5.64542  -2.89491   4.50697 
 H                    -5.11093  -2.18727   5.14752 
 H                    -6.1843   -3.60063   5.14858 
 H                    -6.38448  -2.33224   3.93063 
 C                    -0.38124  -1.47171   1.95431 
 C                     0.44992  -2.53335   1.5837 
 H                     0.00519  -3.49671   1.35547 
 C                     1.80963  -2.33853   1.41029 
 H                     2.44189  -3.13732   1.0415 
 C                     2.37566  -1.08294   1.64471 
 C                     1.57105  -0.05397   2.13694 
 H                     2.01948   0.91178   2.3345 
 C                     0.20801  -0.24414   2.27644 
 H                    -0.42516   0.57212   2.60575 
 C                     3.76122  -0.79775   1.25499 
 C                     5.63147  -1.37776   0.13098 
 C                     5.47165   0.66444   1.07281 
 C                     6.36778  -2.35131  -0.69995 
 C                     5.76848  -3.56194  -1.05682 
 H                     4.76849  -3.77181  -0.69647 
 C                     6.44818  -4.46676  -1.85883 
 H                     5.97836  -5.40543  -2.13266 
 C                     7.73151  -4.17288  -2.30952 
 H                     8.26271  -4.8818   -2.93586 
 C                     8.33304  -2.96935  -1.95562 
 H                     9.33392  -2.73948  -2.30484 
 C                     7.65498  -2.06089  -1.1561 
 H                     8.10666  -1.11779  -0.87335 
 C                     6.02347   2.01212   1.31292 
 C                     7.27318   2.36573   0.8024 
 H                     7.83977   1.62372   0.25299 
 C                     7.76805   3.64782   0.99405 
 H                     8.73947   3.91724   0.59361 
 C                     7.02061   4.58623   1.69823 
 H                     7.40879   5.58834   1.84745 
 C                     5.77554   4.23696   2.21337 
 H                     5.19295   4.96569   2.76715 
 C                     5.27779   2.95688   2.02172 
 H                     4.30803   2.66828   2.4086 
 

 GradGradGradGradGradGradGradGradGradGradGradGradGradGradGradGradGradGrad
 Berny optimization.
 Initialization pass.
                           ----------------------------
                           !    Initial Parameters    !
                           ! (Angstroms and Degrees)  !
 --------------------------                            --------------------------
 ! Name  Definition              Value          Derivative Info.                !
 --------------------------------------------------------------------------------
 ! R1    R(1,6)                  2.1265         estimate D2E/DX2                !
 ! R2    R(1,27)                 2.0476         estimate D2E/DX2                !
 ! R3    R(1,29)                 1.953          estimate D2E/DX2                !
 ! R4    R(1,37)                 2.0482         estimate D2E/DX2                !
 ! R5    R(2,20)                 1.4571         estimate D2E/DX2                !
 ! R6    R(2,23)                 1.383          estimate D2E/DX2                !
 ! R7    R(2,27)                 1.3425         estimate D2E/DX2                !
 ! R8    R(3,25)                 1.3751         estimate D2E/DX2                !
 ! R9    R(3,27)                 1.371          estimate D2E/DX2                !
 ! R10   R(3,28)                 1.4136         estimate D2E/DX2                !
 ! R11   R(4,30)                 1.4158         estimate D2E/DX2                !
 ! R12   R(4,37)                 1.371          estimate D2E/DX2                !
 ! R13   R(4,38)                 1.376          estimate D2E/DX2                !
 ! R14   R(5,37)                 1.3426         estimate D2E/DX2                !
 ! R15   R(5,40)                 1.3842         estimate D2E/DX2                !
 ! R16   R(5,42)                 1.4567         estimate D2E/DX2                !
 ! R17   R(6,63)                 1.3713         estimate D2E/DX2                !
 ! R18   R(6,64)                 1.3715         estimate D2E/DX2                !
 ! R19   R(7,108)                1.3347         estimate D2E/DX2                !
 ! R20   R(7,110)                1.3303         estimate D2E/DX2                !
 ! R21   R(8,109)                1.3339         estimate D2E/DX2                !
 ! R22   R(8,110)                1.3349         estimate D2E/DX2                !
 ! R23   R(9,108)                1.3361         estimate D2E/DX2                !
 ! R24   R(9,109)                1.3315         estimate D2E/DX2                !
 ! R25   R(10,11)                1.0934         estimate D2E/DX2                !
 ! R26   R(10,12)                1.0938         estimate D2E/DX2                !
 ! R27   R(10,13)                1.0955         estimate D2E/DX2                !
 ! R28   R(10,14)                1.5207         estimate D2E/DX2                !
 ! R29   R(14,15)                1.0979         estimate D2E/DX2                !
 ! R30   R(14,16)                1.0957         estimate D2E/DX2                !
 ! R31   R(14,17)                1.5218         estimate D2E/DX2                !
 ! R32   R(17,18)                1.0947         estimate D2E/DX2                !
 ! R33   R(17,19)                1.0974         estimate D2E/DX2                !
 ! R34   R(17,20)                1.5183         estimate D2E/DX2                !
 ! R35   R(20,21)                1.0908         estimate D2E/DX2                !
 ! R36   R(20,22)                1.0932         estimate D2E/DX2                !
 ! R37   R(23,24)                1.0773         estimate D2E/DX2                !
 ! R38   R(23,25)                1.3559         estimate D2E/DX2                !
 ! R39   R(25,26)                1.0769         estimate D2E/DX2                !
 ! R40   R(28,29)                1.3838         estimate D2E/DX2                !
 ! R41   R(28,35)                1.3892         estimate D2E/DX2                !
 ! R42   R(29,30)                1.3842         estimate D2E/DX2                !
 ! R43   R(30,31)                1.3885         estimate D2E/DX2                !
 ! R44   R(31,32)                1.0842         estimate D2E/DX2                !
 ! R45   R(31,33)                1.3958         estimate D2E/DX2                !
 ! R46   R(33,34)                1.0839         estimate D2E/DX2                !
 ! R47   R(33,35)                1.3958         estimate D2E/DX2                !
 ! R48   R(35,36)                1.0847         estimate D2E/DX2                !
 ! R49   R(38,39)                1.0771         estimate D2E/DX2                !
 ! R50   R(38,40)                1.356          estimate D2E/DX2                !
 ! R51   R(40,41)                1.0773         estimate D2E/DX2                !
 ! R52   R(42,43)                1.0945         estimate D2E/DX2                !
 ! R53   R(42,44)                1.0912         estimate D2E/DX2                !
 ! R54   R(42,45)                1.519          estimate D2E/DX2                !
 ! R55   R(45,46)                1.0978         estimate D2E/DX2                !
 ! R56   R(45,47)                1.0953         estimate D2E/DX2                !
 ! R57   R(45,48)                1.5219         estimate D2E/DX2                !
 ! R58   R(48,49)                1.0958         estimate D2E/DX2                !
 ! R59   R(48,50)                1.0976         estimate D2E/DX2                !
 ! R60   R(48,51)                1.5203         estimate D2E/DX2                !
 ! R61   R(51,52)                1.0933         estimate D2E/DX2                !
 ! R62   R(51,53)                1.0939         estimate D2E/DX2                !
 ! R63   R(51,54)                1.0952         estimate D2E/DX2                !
 ! R64   R(55,56)                1.0861         estimate D2E/DX2                !
 ! R65   R(55,57)                1.3832         estimate D2E/DX2                !
 ! R66   R(55,63)                1.4004         estimate D2E/DX2                !
 ! R67   R(57,58)                1.086          estimate D2E/DX2                !
 ! R68   R(57,59)                1.4136         estimate D2E/DX2                !
 ! R69   R(59,60)                1.3893         estimate D2E/DX2                !
 ! R70   R(59,72)                1.5283         estimate D2E/DX2                !
 ! R71   R(60,61)                1.0845         estimate D2E/DX2                !
 ! R72   R(60,62)                1.3972         estimate D2E/DX2                !
 ! R73   R(62,63)                1.4209         estimate D2E/DX2                !
 ! R74   R(62,65)                1.4372         estimate D2E/DX2                !
 ! R75   R(64,65)                1.4281         estimate D2E/DX2                !
 ! R76   R(64,71)                1.4089         estimate D2E/DX2                !
 ! R77   R(65,66)                1.3912         estimate D2E/DX2                !
 ! R78   R(66,67)                1.0867         estimate D2E/DX2                !
 ! R79   R(66,68)                1.3936         estimate D2E/DX2                !
 ! R80   R(68,69)                1.4046         estimate D2E/DX2                !
 ! R81   R(68,85)                1.5289         estimate D2E/DX2                !
 ! R82   R(69,70)                1.0841         estimate D2E/DX2                !
 ! R83   R(69,71)                1.3924         estimate D2E/DX2                !
 ! R84   R(71,98)                1.4752         estimate D2E/DX2                !
 ! R85   R(72,73)                1.5282         estimate D2E/DX2                !
 ! R86   R(72,77)                1.5339         estimate D2E/DX2                !
 ! R87   R(72,81)                1.5356         estimate D2E/DX2                !
 ! R88   R(73,74)                1.0941         estimate D2E/DX2                !
 ! R89   R(73,75)                1.0941         estimate D2E/DX2                !
 ! R90   R(73,76)                1.0942         estimate D2E/DX2                !
 ! R91   R(77,78)                1.0932         estimate D2E/DX2                !
 ! R92   R(77,79)                1.0954         estimate D2E/DX2                !
 ! R93   R(77,80)                1.0933         estimate D2E/DX2                !
 ! R94   R(81,82)                1.0932         estimate D2E/DX2                !
 ! R95   R(81,83)                1.0955         estimate D2E/DX2                !
 ! R96   R(81,84)                1.0938         estimate D2E/DX2                !
 ! R97   R(85,86)                1.5285         estimate D2E/DX2                !
 ! R98   R(85,90)                1.5352         estimate D2E/DX2                !
 ! R99   R(85,94)                1.5347         estimate D2E/DX2                !
 ! R100  R(86,87)                1.0942         estimate D2E/DX2                !
 ! R101  R(86,88)                1.0941         estimate D2E/DX2                !
 ! R102  R(86,89)                1.0941         estimate D2E/DX2                !
 ! R103  R(90,91)                1.0931         estimate D2E/DX2                !
 ! R104  R(90,92)                1.0955         estimate D2E/DX2                !
 ! R105  R(90,93)                1.0942         estimate D2E/DX2                !
 ! R106  R(94,95)                1.094          estimate D2E/DX2                !
 ! R107  R(94,96)                1.0955         estimate D2E/DX2                !
 ! R108  R(94,97)                1.0931         estimate D2E/DX2                !
 ! R109  R(98,99)                1.3983         estimate D2E/DX2                !
 ! R110  R(98,106)               1.3992         estimate D2E/DX2                !
 ! R111  R(99,100)               1.0853         estimate D2E/DX2                !
 ! R112  R(99,101)               1.3845         estimate D2E/DX2                !
 ! R113  R(101,102)              1.0834         estimate D2E/DX2                !
 ! R114  R(101,103)              1.3971         estimate D2E/DX2                !
 ! R115  R(103,104)              1.3959         estimate D2E/DX2                !
 ! R116  R(103,108)              1.4673         estimate D2E/DX2                !
 ! R117  R(104,105)              1.083          estimate D2E/DX2                !
 ! R118  R(104,106)              1.3833         estimate D2E/DX2                !
 ! R119  R(106,107)              1.0843         estimate D2E/DX2                !
 ! R120  R(109,111)              1.4766         estimate D2E/DX2                !
 ! R121  R(110,122)              1.4759         estimate D2E/DX2                !
 ! R122  R(111,112)              1.3972         estimate D2E/DX2                !
 ! R123  R(111,120)              1.3962         estimate D2E/DX2                !
 ! R124  R(112,113)              1.0835         estimate D2E/DX2                !
 ! R125  R(112,114)              1.387          estimate D2E/DX2                !
 ! R126  R(114,115)              1.0848         estimate D2E/DX2                !
 ! R127  R(114,116)              1.3916         estimate D2E/DX2                !
 ! R128  R(116,117)              1.0849         estimate D2E/DX2                !
 ! R129  R(116,118)              1.3912         estimate D2E/DX2                !
 ! R130  R(118,119)              1.0847         estimate D2E/DX2                !
 ! R131  R(118,120)              1.3872         estimate D2E/DX2                !
 ! R132  R(120,121)              1.0832         estimate D2E/DX2                !
 ! R133  R(122,123)              1.3955         estimate D2E/DX2                !
 ! R134  R(122,131)              1.3968         estimate D2E/DX2                !
 ! R135  R(123,124)              1.0833         estimate D2E/DX2                !
 ! R136  R(123,125)              1.3876         estimate D2E/DX2                !
 ! R137  R(125,126)              1.0847         estimate D2E/DX2                !
 ! R138  R(125,127)              1.3911         estimate D2E/DX2                !
 ! R139  R(127,128)              1.085          estimate D2E/DX2                !
 ! R140  R(127,129)              1.392          estimate D2E/DX2                !
 ! R141  R(129,130)              1.085          estimate D2E/DX2                !
 ! R142  R(129,131)              1.3867         estimate D2E/DX2                !
 ! R143  R(131,132)              1.0832         estimate D2E/DX2                !
 ! A1    A(6,1,27)             102.634          estimate D2E/DX2                !
 ! A2    A(6,1,37)             101.3248         estimate D2E/DX2                !
 ! A3    A(27,1,29)             78.0782         estimate D2E/DX2                !
 ! A4    A(27,1,37)            155.9776         estimate D2E/DX2                !
 ! A5    A(29,1,37)             77.9515         estimate D2E/DX2                !
 ! A6    A(20,2,23)            124.8917         estimate D2E/DX2                !
 ! A7    A(20,2,27)            123.9173         estimate D2E/DX2                !
 ! A8    A(23,2,27)            111.1603         estimate D2E/DX2                !
 ! A9    A(25,3,27)            111.5038         estimate D2E/DX2                !
 ! A10   A(25,3,28)            131.8605         estimate D2E/DX2                !
 ! A11   A(27,3,28)            116.6036         estimate D2E/DX2                !
 ! A12   A(30,4,37)            116.4307         estimate D2E/DX2                !
 ! A13   A(30,4,38)            132.0412         estimate D2E/DX2                !
 ! A14   A(37,4,38)            111.3134         estimate D2E/DX2                !
 ! A15   A(37,5,40)            111.1424         estimate D2E/DX2                !
 ! A16   A(37,5,42)            123.6347         estimate D2E/DX2                !
 ! A17   A(40,5,42)            125.2131         estimate D2E/DX2                !
 ! A18   A(1,6,63)             123.323          estimate D2E/DX2                !
 ! A19   A(1,6,64)             130.3648         estimate D2E/DX2                !
 ! A20   A(63,6,64)            106.04           estimate D2E/DX2                !
 ! A21   A(108,7,110)          115.8018         estimate D2E/DX2                !
 ! A22   A(109,8,110)          115.3025         estimate D2E/DX2                !
 ! A23   A(108,9,109)          115.6408         estimate D2E/DX2                !
 ! A24   A(11,10,12)           107.6209         estimate D2E/DX2                !
 ! A25   A(11,10,13)           108.1953         estimate D2E/DX2                !
 ! A26   A(11,10,14)           110.3872         estimate D2E/DX2                !
 ! A27   A(12,10,13)           107.8218         estimate D2E/DX2                !
 ! A28   A(12,10,14)           111.3457         estimate D2E/DX2                !
 ! A29   A(13,10,14)           111.3245         estimate D2E/DX2                !
 ! A30   A(10,14,15)           110.176          estimate D2E/DX2                !
 ! A31   A(10,14,16)           109.2335         estimate D2E/DX2                !
 ! A32   A(10,14,17)           112.1102         estimate D2E/DX2                !
 ! A33   A(15,14,16)           106.673          estimate D2E/DX2                !
 ! A34   A(15,14,17)           109.6039         estimate D2E/DX2                !
 ! A35   A(16,14,17)           108.8848         estimate D2E/DX2                !
 ! A36   A(14,17,18)           109.4777         estimate D2E/DX2                !
 ! A37   A(14,17,19)           110.3705         estimate D2E/DX2                !
 ! A38   A(14,17,20)           111.7243         estimate D2E/DX2                !
 ! A39   A(18,17,19)           107.2997         estimate D2E/DX2                !
 ! A40   A(18,17,20)           108.1754         estimate D2E/DX2                !
 ! A41   A(19,17,20)           109.6664         estimate D2E/DX2                !
 ! A42   A(2,20,17)            112.2858         estimate D2E/DX2                !
 ! A43   A(2,20,21)            107.7773         estimate D2E/DX2                !
 ! A44   A(2,20,22)            107.2299         estimate D2E/DX2                !
 ! A45   A(17,20,21)           110.0545         estimate D2E/DX2                !
 ! A46   A(17,20,22)           111.3255         estimate D2E/DX2                !
 ! A47   A(21,20,22)           107.99           estimate D2E/DX2                !
 ! A48   A(2,23,24)            122.0383         estimate D2E/DX2                !
 ! A49   A(2,23,25)            107.2388         estimate D2E/DX2                !
 ! A50   A(24,23,25)           130.7229         estimate D2E/DX2                !
 ! A51   A(3,25,23)            105.8641         estimate D2E/DX2                !
 ! A52   A(3,25,26)            123.1943         estimate D2E/DX2                !
 ! A53   A(23,25,26)           130.938          estimate D2E/DX2                !
 ! A54   A(1,27,2)             141.4299         estimate D2E/DX2                !
 ! A55   A(1,27,3)             114.178          estimate D2E/DX2                !
 ! A56   A(2,27,3)             104.2289         estimate D2E/DX2                !
 ! A57   A(3,28,29)            110.8443         estimate D2E/DX2                !
 ! A58   A(3,28,35)            127.6493         estimate D2E/DX2                !
 ! A59   A(29,28,35)           121.491          estimate D2E/DX2                !
 ! A60   A(1,29,28)            120.2214         estimate D2E/DX2                !
 ! A61   A(1,29,30)            120.4132         estimate D2E/DX2                !
 ! A62   A(28,29,30)           119.1882         estimate D2E/DX2                !
 ! A63   A(4,30,29)            110.7703         estimate D2E/DX2                !
 ! A64   A(4,30,31)            127.6259         estimate D2E/DX2                !
 ! A65   A(29,30,31)           121.5616         estimate D2E/DX2                !
 ! A66   A(30,31,32)           122.1353         estimate D2E/DX2                !
 ! A67   A(30,31,33)           117.8028         estimate D2E/DX2                !
 ! A68   A(32,31,33)           120.0436         estimate D2E/DX2                !
 ! A69   A(31,33,34)           118.9396         estimate D2E/DX2                !
 ! A70   A(31,33,35)           122.0691         estimate D2E/DX2                !
 ! A71   A(34,33,35)           118.9685         estimate D2E/DX2                !
 ! A72   A(28,35,33)           117.8511         estimate D2E/DX2                !
 ! A73   A(28,35,36)           121.9989         estimate D2E/DX2                !
 ! A74   A(33,35,36)           120.144          estimate D2E/DX2                !
 ! A75   A(1,37,4)             114.4124         estimate D2E/DX2                !
 ! A76   A(1,37,5)             140.7609         estimate D2E/DX2                !
 ! A77   A(4,37,5)             104.3743         estimate D2E/DX2                !
 ! A78   A(4,38,39)            123.1045         estimate D2E/DX2                !
 ! A79   A(4,38,40)            106.0489         estimate D2E/DX2                !
 ! A80   A(39,38,40)           130.8453         estimate D2E/DX2                !
 ! A81   A(5,40,38)            107.1191         estimate D2E/DX2                !
 ! A82   A(5,40,41)            122.2409         estimate D2E/DX2                !
 ! A83   A(38,40,41)           130.6399         estimate D2E/DX2                !
 ! A84   A(5,42,43)            108.1512         estimate D2E/DX2                !
 ! A85   A(5,42,44)            105.9949         estimate D2E/DX2                !
 ! A86   A(5,42,45)            112.4886         estimate D2E/DX2                !
 ! A87   A(43,42,44)           108.4288         estimate D2E/DX2                !
 ! A88   A(43,42,45)           110.9496         estimate D2E/DX2                !
 ! A89   A(44,42,45)           110.6188         estimate D2E/DX2                !
 ! A90   A(42,45,46)           109.8887         estimate D2E/DX2                !
 ! A91   A(42,45,47)           108.6024         estimate D2E/DX2                !
 ! A92   A(42,45,48)           111.6244         estimate D2E/DX2                !
 ! A93   A(46,45,47)           107.1706         estimate D2E/DX2                !
 ! A94   A(46,45,48)           110.0535         estimate D2E/DX2                !
 ! A95   A(47,45,48)           109.3846         estimate D2E/DX2                !
 ! A96   A(45,48,49)           108.7758         estimate D2E/DX2                !
 ! A97   A(45,48,50)           109.5456         estimate D2E/DX2                !
 ! A98   A(45,48,51)           112.2276         estimate D2E/DX2                !
 ! A99   A(49,48,50)           106.6563         estimate D2E/DX2                !
 ! A100  A(49,48,51)           109.7912         estimate D2E/DX2                !
 ! A101  A(50,48,51)           109.684          estimate D2E/DX2                !
 ! A102  A(48,51,52)           111.3461         estimate D2E/DX2                !
 ! A103  A(48,51,53)           110.753          estimate D2E/DX2                !
 ! A104  A(48,51,54)           111.3058         estimate D2E/DX2                !
 ! A105  A(52,51,53)           107.6039         estimate D2E/DX2                !
 ! A106  A(52,51,54)           107.7962         estimate D2E/DX2                !
 ! A107  A(53,51,54)           107.8711         estimate D2E/DX2                !
 ! A108  A(56,55,57)           121.2128         estimate D2E/DX2                !
 ! A109  A(56,55,63)           120.1598         estimate D2E/DX2                !
 ! A110  A(57,55,63)           118.6231         estimate D2E/DX2                !
 ! A111  A(55,57,58)           118.0992         estimate D2E/DX2                !
 ! A112  A(55,57,59)           122.9445         estimate D2E/DX2                !
 ! A113  A(58,57,59)           118.9513         estimate D2E/DX2                !
 ! A114  A(57,59,60)           118.06           estimate D2E/DX2                !
 ! A115  A(57,59,72)           119.2344         estimate D2E/DX2                !
 ! A116  A(60,59,72)           122.6684         estimate D2E/DX2                !
 ! A117  A(59,60,61)           120.5113         estimate D2E/DX2                !
 ! A118  A(59,60,62)           120.3454         estimate D2E/DX2                !
 ! A119  A(61,60,62)           119.1365         estimate D2E/DX2                !
 ! A120  A(60,62,63)           120.6313         estimate D2E/DX2                !
 ! A121  A(60,62,65)           134.0548         estimate D2E/DX2                !
 ! A122  A(63,62,65)           105.2675         estimate D2E/DX2                !
 ! A123  A(6,63,55)            128.7349         estimate D2E/DX2                !
 ! A124  A(6,63,62)            111.8656         estimate D2E/DX2                !
 ! A125  A(55,63,62)           119.3927         estimate D2E/DX2                !
 ! A126  A(6,64,65)            111.3998         estimate D2E/DX2                !
 ! A127  A(6,64,71)            129.4475         estimate D2E/DX2                !
 ! A128  A(65,64,71)           119.0706         estimate D2E/DX2                !
 ! A129  A(62,65,64)           105.4168         estimate D2E/DX2                !
 ! A130  A(62,65,66)           133.749          estimate D2E/DX2                !
 ! A131  A(64,65,66)           120.7315         estimate D2E/DX2                !
 ! A132  A(65,66,67)           119.2272         estimate D2E/DX2                !
 ! A133  A(65,66,68)           120.6079         estimate D2E/DX2                !
 ! A134  A(67,66,68)           120.1557         estimate D2E/DX2                !
 ! A135  A(66,68,69)           118.0373         estimate D2E/DX2                !
 ! A136  A(66,68,85)           119.6432         estimate D2E/DX2                !
 ! A137  A(69,68,85)           122.3194         estimate D2E/DX2                !
 ! A138  A(68,69,70)           119.6829         estimate D2E/DX2                !
 ! A139  A(68,69,71)           123.2468         estimate D2E/DX2                !
 ! A140  A(70,69,71)           117.055          estimate D2E/DX2                !
 ! A141  A(64,71,69)           118.2649         estimate D2E/DX2                !
 ! A142  A(64,71,98)           119.9287         estimate D2E/DX2                !
 ! A143  A(69,71,98)           121.7848         estimate D2E/DX2                !
 ! A144  A(59,72,73)           112.1254         estimate D2E/DX2                !
 ! A145  A(59,72,77)           110.1386         estimate D2E/DX2                !
 ! A146  A(59,72,81)           109.2492         estimate D2E/DX2                !
 ! A147  A(73,72,77)           108.0209         estimate D2E/DX2                !
 ! A148  A(73,72,81)           108.0952         estimate D2E/DX2                !
 ! A149  A(77,72,81)           109.1457         estimate D2E/DX2                !
 ! A150  A(72,73,74)           111.643          estimate D2E/DX2                !
 ! A151  A(72,73,75)           109.6098         estimate D2E/DX2                !
 ! A152  A(72,73,76)           111.5846         estimate D2E/DX2                !
 ! A153  A(74,73,75)           107.7116         estimate D2E/DX2                !
 ! A154  A(74,73,76)           108.3331         estimate D2E/DX2                !
 ! A155  A(75,73,76)           107.8063         estimate D2E/DX2                !
 ! A156  A(72,77,78)           110.6718         estimate D2E/DX2                !
 ! A157  A(72,77,79)           110.3762         estimate D2E/DX2                !
 ! A158  A(72,77,80)           111.692          estimate D2E/DX2                !
 ! A159  A(78,77,79)           108.3076         estimate D2E/DX2                !
 ! A160  A(78,77,80)           107.8502         estimate D2E/DX2                !
 ! A161  A(79,77,80)           107.8174         estimate D2E/DX2                !
 ! A162  A(72,81,82)           111.5232         estimate D2E/DX2                !
 ! A163  A(72,81,83)           110.4449         estimate D2E/DX2                !
 ! A164  A(72,81,84)           110.6592         estimate D2E/DX2                !
 ! A165  A(82,81,83)           107.9456         estimate D2E/DX2                !
 ! A166  A(82,81,84)           107.796          estimate D2E/DX2                !
 ! A167  A(83,81,84)           108.3526         estimate D2E/DX2                !
 ! A168  A(68,85,86)           112.3753         estimate D2E/DX2                !
 ! A169  A(68,85,90)           109.3417         estimate D2E/DX2                !
 ! A170  A(68,85,94)           109.577          estimate D2E/DX2                !
 ! A171  A(86,85,90)           108.1057         estimate D2E/DX2                !
 ! A172  A(86,85,94)           108.1306         estimate D2E/DX2                !
 ! A173  A(90,85,94)           109.2534         estimate D2E/DX2                !
 ! A174  A(85,86,87)           111.6951         estimate D2E/DX2                !
 ! A175  A(85,86,88)           109.5492         estimate D2E/DX2                !
 ! A176  A(85,86,89)           111.704          estimate D2E/DX2                !
 ! A177  A(87,86,88)           107.7105         estimate D2E/DX2                !
 ! A178  A(87,86,89)           108.2894         estimate D2E/DX2                !
 ! A179  A(88,86,89)           107.7321         estimate D2E/DX2                !
 ! A180  A(85,90,91)           111.513          estimate D2E/DX2                !
 ! A181  A(85,90,92)           110.5321         estimate D2E/DX2                !
 ! A182  A(85,90,93)           110.6273         estimate D2E/DX2                !
 ! A183  A(91,90,92)           107.9407         estimate D2E/DX2                !
 ! A184  A(91,90,93)           107.7916         estimate D2E/DX2                !
 ! A185  A(92,90,93)           108.3142         estimate D2E/DX2                !
 ! A186  A(85,94,95)           110.6279         estimate D2E/DX2                !
 ! A187  A(85,94,96)           110.5122         estimate D2E/DX2                !
 ! A188  A(85,94,97)           111.5216         estimate D2E/DX2                !
 ! A189  A(95,94,96)           108.3072         estimate D2E/DX2                !
 ! A190  A(95,94,97)           107.8233         estimate D2E/DX2                !
 ! A191  A(96,94,97)           107.9271         estimate D2E/DX2                !
 ! A192  A(71,98,99)           121.4821         estimate D2E/DX2                !
 ! A193  A(71,98,106)          119.8702         estimate D2E/DX2                !
 ! A194  A(99,98,106)          118.4759         estimate D2E/DX2                !
 ! A195  A(98,99,100)          119.0839         estimate D2E/DX2                !
 ! A196  A(98,99,101)          120.6717         estimate D2E/DX2                !
 ! A197  A(100,99,101)         120.0654         estimate D2E/DX2                !
 ! A198  A(99,101,102)         120.7974         estimate D2E/DX2                !
 ! A199  A(99,101,103)         120.2214         estimate D2E/DX2                !
 ! A200  A(102,101,103)        118.9008         estimate D2E/DX2                !
 ! A201  A(101,103,104)        119.2178         estimate D2E/DX2                !
 ! A202  A(101,103,108)        120.8434         estimate D2E/DX2                !
 ! A203  A(104,103,108)        119.6489         estimate D2E/DX2                !
 ! A204  A(103,104,105)        118.8829         estimate D2E/DX2                !
 ! A205  A(103,104,106)        120.1451         estimate D2E/DX2                !
 ! A206  A(105,104,106)        120.8119         estimate D2E/DX2                !
 ! A207  A(98,106,104)         120.8201         estimate D2E/DX2                !
 ! A208  A(98,106,107)         118.9776         estimate D2E/DX2                !
 ! A209  A(104,106,107)        120.1679         estimate D2E/DX2                !
 ! A210  A(7,108,9)            124.0487         estimate D2E/DX2                !
 ! A211  A(7,108,103)          117.8737         estimate D2E/DX2                !
 ! A212  A(9,108,103)          117.9678         estimate D2E/DX2                !
 ! A213  A(8,109,9)            124.6425         estimate D2E/DX2                !
 ! A214  A(8,109,111)          117.8738         estimate D2E/DX2                !
 ! A215  A(9,109,111)          117.4436         estimate D2E/DX2                !
 ! A216  A(7,110,8)            124.5347         estimate D2E/DX2                !
 ! A217  A(7,110,122)          117.4264         estimate D2E/DX2                !
 ! A218  A(8,110,122)          118.0091         estimate D2E/DX2                !
 ! A219  A(109,111,112)        120.0743         estimate D2E/DX2                !
 ! A220  A(109,111,120)        120.4261         estimate D2E/DX2                !
 ! A221  A(112,111,120)        119.4883         estimate D2E/DX2                !
 ! A222  A(111,112,113)        118.6055         estimate D2E/DX2                !
 ! A223  A(111,112,114)        120.1806         estimate D2E/DX2                !
 ! A224  A(113,112,114)        121.2136         estimate D2E/DX2                !
 ! A225  A(112,114,115)        119.8796         estimate D2E/DX2                !
 ! A226  A(112,114,116)        120.0941         estimate D2E/DX2                !
 ! A227  A(115,114,116)        120.0262         estimate D2E/DX2                !
 ! A228  A(114,116,117)        120.0343         estimate D2E/DX2                !
 ! A229  A(114,116,118)        119.9373         estimate D2E/DX2                !
 ! A230  A(117,116,118)        120.0283         estimate D2E/DX2                !
 ! A231  A(116,118,119)        120.0258         estimate D2E/DX2                !
 ! A232  A(116,118,120)        120.1193         estimate D2E/DX2                !
 ! A233  A(119,118,120)        119.8549         estimate D2E/DX2                !
 ! A234  A(111,120,118)        120.1801         estimate D2E/DX2                !
 ! A235  A(111,120,121)        118.7018         estimate D2E/DX2                !
 ! A236  A(118,120,121)        121.1181         estimate D2E/DX2                !
 ! A237  A(110,122,123)        120.4419         estimate D2E/DX2                !
 ! A238  A(110,122,131)        120.0375         estimate D2E/DX2                !
 ! A239  A(123,122,131)        119.4941         estimate D2E/DX2                !
 ! A240  A(122,123,124)        118.7098         estimate D2E/DX2                !
 ! A241  A(122,123,125)        120.1969         estimate D2E/DX2                !
 ! A242  A(124,123,125)        121.0924         estimate D2E/DX2                !
 ! A243  A(123,125,126)        119.8609         estimate D2E/DX2                !
 ! A244  A(123,125,127)        120.1054         estimate D2E/DX2                !
 ! A245  A(126,125,127)        120.0337         estimate D2E/DX2                !
 ! A246  A(125,127,128)        120.0292         estimate D2E/DX2                !
 ! A247  A(125,127,129)        119.9121         estimate D2E/DX2                !
 ! A248  A(128,127,129)        120.0586         estimate D2E/DX2                !
 ! A249  A(127,129,130)        120.0439         estimate D2E/DX2                !
 ! A250  A(127,129,131)        120.1016         estimate D2E/DX2                !
 ! A251  A(130,129,131)        119.8545         estimate D2E/DX2                !
 ! A252  A(122,131,129)        120.1894         estimate D2E/DX2                !
 ! A253  A(122,131,132)        118.6177         estimate D2E/DX2                !
 ! A254  A(129,131,132)        121.1919         estimate D2E/DX2                !
 ! A255  L(6,1,29,27,-1)       180.7122         estimate D2E/DX2                !
 ! A256  L(6,1,29,27,-2)       180.4137         estimate D2E/DX2                !
 ! D1    D(27,1,6,63)         -103.7672         estimate D2E/DX2                !
 ! D2    D(27,1,6,64)           69.369          estimate D2E/DX2                !
 ! D3    D(37,1,6,63)           77.9936         estimate D2E/DX2                !
 ! D4    D(37,1,6,64)         -108.8703         estimate D2E/DX2                !
 ! D5    D(6,1,27,2)            -2.8014         estimate D2E/DX2                !
 ! D6    D(6,1,27,3)          -177.1552         estimate D2E/DX2                !
 ! D7    D(29,1,27,2)          176.7849         estimate D2E/DX2                !
 ! D8    D(29,1,27,3)            2.4311         estimate D2E/DX2                !
 ! D9    D(37,1,27,2)          172.9545         estimate D2E/DX2                !
 ! D10   D(37,1,27,3)           -1.3993         estimate D2E/DX2                !
 ! D11   D(27,1,29,28)          -2.2273         estimate D2E/DX2                !
 ! D12   D(27,1,29,30)        -177.3508         estimate D2E/DX2                !
 ! D13   D(37,1,29,28)         176.1792         estimate D2E/DX2                !
 ! D14   D(37,1,29,30)           1.0557         estimate D2E/DX2                !
 ! D15   D(6,1,37,4)           178.2722         estimate D2E/DX2                !
 ! D16   D(6,1,37,5)             7.6155         estimate D2E/DX2                !
 ! D17   D(27,1,37,4)            2.4958         estimate D2E/DX2                !
 ! D18   D(27,1,37,5)         -168.161          estimate D2E/DX2                !
 ! D19   D(29,1,37,4)           -1.3365         estimate D2E/DX2                !
 ! D20   D(29,1,37,5)         -171.9932         estimate D2E/DX2                !
 ! D21   D(23,2,20,17)        -103.1562         estimate D2E/DX2                !
 ! D22   D(23,2,20,21)         135.4723         estimate D2E/DX2                !
 ! D23   D(23,2,20,22)          19.4316         estimate D2E/DX2                !
 ! D24   D(27,2,20,17)          74.6475         estimate D2E/DX2                !
 ! D25   D(27,2,20,21)         -46.724          estimate D2E/DX2                !
 ! D26   D(27,2,20,22)        -162.7648         estimate D2E/DX2                !
 ! D27   D(20,2,23,24)          -1.9129         estimate D2E/DX2                !
 ! D28   D(20,2,23,25)         178.1501         estimate D2E/DX2                !
 ! D29   D(27,2,23,24)        -179.9585         estimate D2E/DX2                !
 ! D30   D(27,2,23,25)           0.1044         estimate D2E/DX2                !
 ! D31   D(20,2,27,1)            7.5366         estimate D2E/DX2                !
 ! D32   D(20,2,27,3)         -177.7764         estimate D2E/DX2                !
 ! D33   D(23,2,27,1)         -174.3951         estimate D2E/DX2                !
 ! D34   D(23,2,27,3)            0.2919         estimate D2E/DX2                !
 ! D35   D(27,3,25,23)           0.6659         estimate D2E/DX2                !
 ! D36   D(27,3,25,26)        -178.7067         estimate D2E/DX2                !
 ! D37   D(28,3,25,23)         178.4878         estimate D2E/DX2                !
 ! D38   D(28,3,25,26)          -0.8848         estimate D2E/DX2                !
 ! D39   D(25,3,27,1)          175.7796         estimate D2E/DX2                !
 ! D40   D(25,3,27,2)           -0.5922         estimate D2E/DX2                !
 ! D41   D(28,3,27,1)           -2.4063         estimate D2E/DX2                !
 ! D42   D(28,3,27,2)         -178.7781         estimate D2E/DX2                !
 ! D43   D(25,3,28,29)        -177.0768         estimate D2E/DX2                !
 ! D44   D(25,3,28,35)           1.4965         estimate D2E/DX2                !
 ! D45   D(27,3,28,29)           0.6567         estimate D2E/DX2                !
 ! D46   D(27,3,28,35)         179.23           estimate D2E/DX2                !
 ! D47   D(37,4,30,29)          -0.638          estimate D2E/DX2                !
 ! D48   D(37,4,30,31)        -178.2807         estimate D2E/DX2                !
 ! D49   D(38,4,30,29)         173.4907         estimate D2E/DX2                !
 ! D50   D(38,4,30,31)          -4.1521         estimate D2E/DX2                !
 ! D51   D(30,4,37,1)            1.4795         estimate D2E/DX2                !
 ! D52   D(30,4,37,5)          175.3939         estimate D2E/DX2                !
 ! D53   D(38,4,37,1)         -173.843          estimate D2E/DX2                !
 ! D54   D(38,4,37,5)            0.0714         estimate D2E/DX2                !
 ! D55   D(30,4,38,39)           4.9503         estimate D2E/DX2                !
 ! D56   D(30,4,38,40)        -174.6846         estimate D2E/DX2                !
 ! D57   D(37,4,38,39)         179.3074         estimate D2E/DX2                !
 ! D58   D(37,4,38,40)          -0.3275         estimate D2E/DX2                !
 ! D59   D(40,5,37,1)          171.4358         estimate D2E/DX2                !
 ! D60   D(40,5,37,4)            0.2141         estimate D2E/DX2                !
 ! D61   D(42,5,37,1)           -9.6505         estimate D2E/DX2                !
 ! D62   D(42,5,37,4)          179.1278         estimate D2E/DX2                !
 ! D63   D(37,5,40,38)          -0.4227         estimate D2E/DX2                !
 ! D64   D(37,5,40,41)         179.6515         estimate D2E/DX2                !
 ! D65   D(42,5,40,38)        -179.3157         estimate D2E/DX2                !
 ! D66   D(42,5,40,41)           0.7586         estimate D2E/DX2                !
 ! D67   D(37,5,42,43)         129.6296         estimate D2E/DX2                !
 ! D68   D(37,5,42,44)          13.5223         estimate D2E/DX2                !
 ! D69   D(37,5,42,45)        -107.4851         estimate D2E/DX2                !
 ! D70   D(40,5,42,43)         -51.6105         estimate D2E/DX2                !
 ! D71   D(40,5,42,44)        -167.7178         estimate D2E/DX2                !
 ! D72   D(40,5,42,45)          71.2747         estimate D2E/DX2                !
 ! D73   D(1,6,63,55)           -4.0579         estimate D2E/DX2                !
 ! D74   D(1,6,63,62)          174.9793         estimate D2E/DX2                !
 ! D75   D(64,6,63,55)        -178.6211         estimate D2E/DX2                !
 ! D76   D(64,6,63,62)           0.4162         estimate D2E/DX2                !
 ! D77   D(1,6,64,65)         -173.7719         estimate D2E/DX2                !
 ! D78   D(1,6,64,71)            2.8477         estimate D2E/DX2                !
 ! D79   D(63,6,64,65)           0.264          estimate D2E/DX2                !
 ! D80   D(63,6,64,71)         176.8835         estimate D2E/DX2                !
 ! D81   D(110,7,108,9)          2.0614         estimate D2E/DX2                !
 ! D82   D(110,7,108,103)     -174.0431         estimate D2E/DX2                !
 ! D83   D(108,7,110,8)         -1.4095         estimate D2E/DX2                !
 ! D84   D(108,7,110,122)      176.558          estimate D2E/DX2                !
 ! D85   D(110,8,109,9)         -0.1571         estimate D2E/DX2                !
 ! D86   D(110,8,109,111)      177.4772         estimate D2E/DX2                !
 ! D87   D(109,8,110,7)          0.5142         estimate D2E/DX2                !
 ! D88   D(109,8,110,122)     -177.4425         estimate D2E/DX2                !
 ! D89   D(109,9,108,7)         -1.7464         estimate D2E/DX2                !
 ! D90   D(109,9,108,103)      174.3547         estimate D2E/DX2                !
 ! D91   D(108,9,109,8)          0.7374         estimate D2E/DX2                !
 ! D92   D(108,9,109,111)     -176.9062         estimate D2E/DX2                !
 ! D93   D(11,10,14,15)        176.9463         estimate D2E/DX2                !
 ! D94   D(11,10,14,16)         60.0782         estimate D2E/DX2                !
 ! D95   D(11,10,14,17)        -60.7025         estimate D2E/DX2                !
 ! D96   D(12,10,14,15)         57.4761         estimate D2E/DX2                !
 ! D97   D(12,10,14,16)        -59.392          estimate D2E/DX2                !
 ! D98   D(12,10,14,17)        179.8272         estimate D2E/DX2                !
 ! D99   D(13,10,14,15)        -62.8758         estimate D2E/DX2                !
 ! D100  D(13,10,14,16)       -179.7439         estimate D2E/DX2                !
 ! D101  D(13,10,14,17)         59.4754         estimate D2E/DX2                !
 ! D102  D(10,14,17,18)         54.6321         estimate D2E/DX2                !
 ! D103  D(10,14,17,19)        -63.2587         estimate D2E/DX2                !
 ! D104  D(10,14,17,20)        174.439          estimate D2E/DX2                !
 ! D105  D(15,14,17,18)        177.308          estimate D2E/DX2                !
 ! D106  D(15,14,17,19)         59.4172         estimate D2E/DX2                !
 ! D107  D(15,14,17,20)        -62.885          estimate D2E/DX2                !
 ! D108  D(16,14,17,18)        -66.3501         estimate D2E/DX2                !
 ! D109  D(16,14,17,19)        175.7591         estimate D2E/DX2                !
 ! D110  D(16,14,17,20)         53.4568         estimate D2E/DX2                !
 ! D111  D(14,17,20,2)        -178.4142         estimate D2E/DX2                !
 ! D112  D(14,17,20,21)        -58.3563         estimate D2E/DX2                !
 ! D113  D(14,17,20,22)         61.3442         estimate D2E/DX2                !
 ! D114  D(18,17,20,2)         -57.844          estimate D2E/DX2                !
 ! D115  D(18,17,20,21)         62.2139         estimate D2E/DX2                !
 ! D116  D(18,17,20,22)       -178.0856         estimate D2E/DX2                !
 ! D117  D(19,17,20,2)          58.8809         estimate D2E/DX2                !
 ! D118  D(19,17,20,21)        178.9388         estimate D2E/DX2                !
 ! D119  D(19,17,20,22)        -61.3607         estimate D2E/DX2                !
 ! D120  D(2,23,25,3)           -0.4549         estimate D2E/DX2                !
 ! D121  D(2,23,25,26)         178.8501         estimate D2E/DX2                !
 ! D122  D(24,23,25,3)         179.6156         estimate D2E/DX2                !
 ! D123  D(24,23,25,26)         -1.0794         estimate D2E/DX2                !
 ! D124  D(3,28,29,1)            1.5688         estimate D2E/DX2                !
 ! D125  D(3,28,29,30)         176.7519         estimate D2E/DX2                !
 ! D126  D(35,28,29,1)        -177.1065         estimate D2E/DX2                !
 ! D127  D(35,28,29,30)         -1.9235         estimate D2E/DX2                !
 ! D128  D(3,28,35,33)        -177.997          estimate D2E/DX2                !
 ! D129  D(3,28,35,36)           1.1167         estimate D2E/DX2                !
 ! D130  D(29,28,35,33)          0.4394         estimate D2E/DX2                !
 ! D131  D(29,28,35,36)        179.5531         estimate D2E/DX2                !
 ! D132  D(1,29,30,4)           -0.5715         estimate D2E/DX2                !
 ! D133  D(1,29,30,31)         177.2375         estimate D2E/DX2                !
 ! D134  D(28,29,30,4)        -175.745          estimate D2E/DX2                !
 ! D135  D(28,29,30,31)          2.064          estimate D2E/DX2                !
 ! D136  D(4,30,31,32)          -1.7391         estimate D2E/DX2                !
 ! D137  D(4,30,31,33)         176.7047         estimate D2E/DX2                !
 ! D138  D(29,30,31,32)       -179.1523         estimate D2E/DX2                !
 ! D139  D(29,30,31,33)         -0.7085         estimate D2E/DX2                !
 ! D140  D(30,31,33,34)       -179.0782         estimate D2E/DX2                !
 ! D141  D(30,31,33,35)         -0.8328         estimate D2E/DX2                !
 ! D142  D(32,31,33,34)         -0.6005         estimate D2E/DX2                !
 ! D143  D(32,31,33,35)        177.6449         estimate D2E/DX2                !
 ! D144  D(31,33,35,28)          0.9641         estimate D2E/DX2                !
 ! D145  D(31,33,35,36)       -178.1667         estimate D2E/DX2                !
 ! D146  D(34,33,35,28)        179.209          estimate D2E/DX2                !
 ! D147  D(34,33,35,36)          0.0782         estimate D2E/DX2                !
 ! D148  D(4,38,40,5)            0.4399         estimate D2E/DX2                !
 ! D149  D(4,38,40,41)        -179.6429         estimate D2E/DX2                !
 ! D150  D(39,38,40,5)        -179.1558         estimate D2E/DX2                !
 ! D151  D(39,38,40,41)          0.7614         estimate D2E/DX2                !
 ! D152  D(5,42,45,46)         -64.1117         estimate D2E/DX2                !
 ! D153  D(5,42,45,47)          52.8256         estimate D2E/DX2                !
 ! D154  D(5,42,45,48)         173.4991         estimate D2E/DX2                !
 ! D155  D(43,42,45,46)         57.1887         estimate D2E/DX2                !
 ! D156  D(43,42,45,47)        174.126          estimate D2E/DX2                !
 ! D157  D(43,42,45,48)        -65.2004         estimate D2E/DX2                !
 ! D158  D(44,42,45,46)        177.5678         estimate D2E/DX2                !
 ! D159  D(44,42,45,47)        -65.4948         estimate D2E/DX2                !
 ! D160  D(44,42,45,48)         55.1787         estimate D2E/DX2                !
 ! D161  D(42,45,48,49)        -63.1032         estimate D2E/DX2                !
 ! D162  D(42,45,48,50)         53.1246         estimate D2E/DX2                !
 ! D163  D(42,45,48,51)        175.2112         estimate D2E/DX2                !
 ! D164  D(46,45,48,49)        174.6023         estimate D2E/DX2                !
 ! D165  D(46,45,48,50)        -69.17           estimate D2E/DX2                !
 ! D166  D(46,45,48,51)         52.9167         estimate D2E/DX2                !
 ! D167  D(47,45,48,49)         57.1122         estimate D2E/DX2                !
 ! D168  D(47,45,48,50)        173.34           estimate D2E/DX2                !
 ! D169  D(47,45,48,51)        -64.5734         estimate D2E/DX2                !
 ! D170  D(45,48,51,52)        178.9023         estimate D2E/DX2                !
 ! D171  D(45,48,51,53)         59.2109         estimate D2E/DX2                !
 ! D172  D(45,48,51,54)        -60.7908         estimate D2E/DX2                !
 ! D173  D(49,48,51,52)         57.7988         estimate D2E/DX2                !
 ! D174  D(49,48,51,53)        -61.8926         estimate D2E/DX2                !
 ! D175  D(49,48,51,54)        178.1058         estimate D2E/DX2                !
 ! D176  D(50,48,51,52)        -59.0899         estimate D2E/DX2                !
 ! D177  D(50,48,51,53)       -178.7813         estimate D2E/DX2                !
 ! D178  D(50,48,51,54)         61.217          estimate D2E/DX2                !
 ! D179  D(56,55,57,58)         -0.1513         estimate D2E/DX2                !
 ! D180  D(56,55,57,59)        179.0266         estimate D2E/DX2                !
 ! D181  D(63,55,57,58)       -179.402          estimate D2E/DX2                !
 ! D182  D(63,55,57,59)         -0.2241         estimate D2E/DX2                !
 ! D183  D(56,55,63,6)          -0.5395         estimate D2E/DX2                !
 ! D184  D(56,55,63,62)       -179.514          estimate D2E/DX2                !
 ! D185  D(57,55,63,6)         178.7193         estimate D2E/DX2                !
 ! D186  D(57,55,63,62)         -0.2552         estimate D2E/DX2                !
 ! D187  D(55,57,59,60)          0.5814         estimate D2E/DX2                !
 ! D188  D(55,57,59,72)       -177.2602         estimate D2E/DX2                !
 ! D189  D(58,57,59,60)        179.7526         estimate D2E/DX2                !
 ! D190  D(58,57,59,72)          1.911          estimate D2E/DX2                !
 ! D191  D(57,59,60,61)       -179.4948         estimate D2E/DX2                !
 ! D192  D(57,59,60,62)         -0.4505         estimate D2E/DX2                !
 ! D193  D(72,59,60,61)         -1.7323         estimate D2E/DX2                !
 ! D194  D(72,59,60,62)        177.312          estimate D2E/DX2                !
 ! D195  D(57,59,72,73)       -179.5696         estimate D2E/DX2                !
 ! D196  D(57,59,72,77)        -59.2516         estimate D2E/DX2                !
 ! D197  D(57,59,72,81)         60.6209         estimate D2E/DX2                !
 ! D198  D(60,59,72,73)          2.6931         estimate D2E/DX2                !
 ! D199  D(60,59,72,77)        123.0111         estimate D2E/DX2                !
 ! D200  D(60,59,72,81)       -117.1164         estimate D2E/DX2                !
 ! D201  D(59,60,62,63)         -0.0101         estimate D2E/DX2                !
 ! D202  D(59,60,62,65)       -177.1292         estimate D2E/DX2                !
 ! D203  D(61,60,62,63)        179.0472         estimate D2E/DX2                !
 ! D204  D(61,60,62,65)          1.9281         estimate D2E/DX2                !
 ! D205  D(60,62,63,6)        -178.7636         estimate D2E/DX2                !
 ! D206  D(60,62,63,55)          0.3744         estimate D2E/DX2                !
 ! D207  D(65,62,63,6)          -0.9094         estimate D2E/DX2                !
 ! D208  D(65,62,63,55)        178.2286         estimate D2E/DX2                !
 ! D209  D(60,62,65,64)        178.4295         estimate D2E/DX2                !
 ! D210  D(60,62,65,66)          2.2409         estimate D2E/DX2                !
 ! D211  D(63,62,65,64)          0.9989         estimate D2E/DX2                !
 ! D212  D(63,62,65,66)       -175.1898         estimate D2E/DX2                !
 ! D213  D(6,64,65,62)          -0.8135         estimate D2E/DX2                !
 ! D214  D(6,64,65,66)         175.9842         estimate D2E/DX2                !
 ! D215  D(71,64,65,62)       -177.8272         estimate D2E/DX2                !
 ! D216  D(71,64,65,66)         -1.0296         estimate D2E/DX2                !
 ! D217  D(6,64,71,69)        -174.1307         estimate D2E/DX2                !
 ! D218  D(6,64,71,98)           4.2068         estimate D2E/DX2                !
 ! D219  D(65,64,71,69)          2.2679         estimate D2E/DX2                !
 ! D220  D(65,64,71,98)       -179.3945         estimate D2E/DX2                !
 ! D221  D(62,65,66,67)         -3.7932         estimate D2E/DX2                !
 ! D222  D(62,65,66,68)        175.1076         estimate D2E/DX2                !
 ! D223  D(64,65,66,67)       -179.518          estimate D2E/DX2                !
 ! D224  D(64,65,66,68)         -0.6171         estimate D2E/DX2                !
 ! D225  D(65,66,68,69)          0.9473         estimate D2E/DX2                !
 ! D226  D(65,66,68,85)       -178.9291         estimate D2E/DX2                !
 ! D227  D(67,66,68,69)        179.8379         estimate D2E/DX2                !
 ! D228  D(67,66,68,85)         -0.0384         estimate D2E/DX2                !
 ! D229  D(66,68,69,70)        178.9147         estimate D2E/DX2                !
 ! D230  D(66,68,69,71)          0.3827         estimate D2E/DX2                !
 ! D231  D(85,68,69,70)         -1.2125         estimate D2E/DX2                !
 ! D232  D(85,68,69,71)       -179.7445         estimate D2E/DX2                !
 ! D233  D(66,68,85,86)       -179.9156         estimate D2E/DX2                !
 ! D234  D(66,68,85,90)         60.0396         estimate D2E/DX2                !
 ! D235  D(66,68,85,94)        -59.6791         estimate D2E/DX2                !
 ! D236  D(69,68,85,86)          0.2135         estimate D2E/DX2                !
 ! D237  D(69,68,85,90)       -119.8312         estimate D2E/DX2                !
 ! D238  D(69,68,85,94)        120.45           estimate D2E/DX2                !
 ! D239  D(68,69,71,64)         -2.0014         estimate D2E/DX2                !
 ! D240  D(68,69,71,98)        179.6935         estimate D2E/DX2                !
 ! D241  D(70,69,71,64)        179.4307         estimate D2E/DX2                !
 ! D242  D(70,69,71,98)          1.1256         estimate D2E/DX2                !
 ! D243  D(64,71,98,99)       -115.0205         estimate D2E/DX2                !
 ! D244  D(64,71,98,106)        60.1429         estimate D2E/DX2                !
 ! D245  D(69,71,98,99)         63.2569         estimate D2E/DX2                !
 ! D246  D(69,71,98,106)      -121.5797         estimate D2E/DX2                !
 ! D247  D(59,72,73,74)        -61.1743         estimate D2E/DX2                !
 ! D248  D(59,72,73,75)        179.5625         estimate D2E/DX2                !
 ! D249  D(59,72,73,76)         60.2182         estimate D2E/DX2                !
 ! D250  D(77,72,73,74)        177.2851         estimate D2E/DX2                !
 ! D251  D(77,72,73,75)         58.022          estimate D2E/DX2                !
 ! D252  D(77,72,73,76)        -61.3224         estimate D2E/DX2                !
 ! D253  D(81,72,73,74)         59.3067         estimate D2E/DX2                !
 ! D254  D(81,72,73,75)        -59.9564         estimate D2E/DX2                !
 ! D255  D(81,72,73,76)       -179.3008         estimate D2E/DX2                !
 ! D256  D(59,72,77,78)        -61.8197         estimate D2E/DX2                !
 ! D257  D(59,72,77,79)        178.2937         estimate D2E/DX2                !
 ! D258  D(59,72,77,80)         58.3577         estimate D2E/DX2                !
 ! D259  D(73,72,77,78)         60.9426         estimate D2E/DX2                !
 ! D260  D(73,72,77,79)        -58.944          estimate D2E/DX2                !
 ! D261  D(73,72,77,80)       -178.88           estimate D2E/DX2                !
 ! D262  D(81,72,77,78)        178.2451         estimate D2E/DX2                !
 ! D263  D(81,72,77,79)         58.3585         estimate D2E/DX2                !
 ! D264  D(81,72,77,80)        -61.5775         estimate D2E/DX2                !
 ! D265  D(59,72,81,82)        -59.7331         estimate D2E/DX2                !
 ! D266  D(59,72,81,83)       -179.7658         estimate D2E/DX2                !
 ! D267  D(59,72,81,84)         60.2549         estimate D2E/DX2                !
 ! D268  D(73,72,81,82)        178.0044         estimate D2E/DX2                !
 ! D269  D(73,72,81,83)         57.9717         estimate D2E/DX2                !
 ! D270  D(73,72,81,84)        -62.0076         estimate D2E/DX2                !
 ! D271  D(77,72,81,82)         60.7489         estimate D2E/DX2                !
 ! D272  D(77,72,81,83)        -59.2838         estimate D2E/DX2                !
 ! D273  D(77,72,81,84)       -179.2631         estimate D2E/DX2                !
 ! D274  D(68,85,86,87)        -60.5724         estimate D2E/DX2                !
 ! D275  D(68,85,86,88)       -179.8273         estimate D2E/DX2                !
 ! D276  D(68,85,86,89)         60.8851         estimate D2E/DX2                !
 ! D277  D(90,85,86,87)         60.1863         estimate D2E/DX2                !
 ! D278  D(90,85,86,88)        -59.0686         estimate D2E/DX2                !
 ! D279  D(90,85,86,89)       -178.3561         estimate D2E/DX2                !
 ! D280  D(94,85,86,87)        178.3577         estimate D2E/DX2                !
 ! D281  D(94,85,86,88)         59.1027         estimate D2E/DX2                !
 ! D282  D(94,85,86,89)        -60.1848         estimate D2E/DX2                !
 ! D283  D(68,85,90,91)        -59.7364         estimate D2E/DX2                !
 ! D284  D(68,85,90,92)       -179.8149         estimate D2E/DX2                !
 ! D285  D(68,85,90,93)         60.2179         estimate D2E/DX2                !
 ! D286  D(86,85,90,91)        177.6327         estimate D2E/DX2                !
 ! D287  D(86,85,90,92)         57.5542         estimate D2E/DX2                !
 ! D288  D(86,85,90,93)        -62.4131         estimate D2E/DX2                !
 ! D289  D(94,85,90,91)         60.1814         estimate D2E/DX2                !
 ! D290  D(94,85,90,92)        -59.897          estimate D2E/DX2                !
 ! D291  D(94,85,90,93)       -179.8643         estimate D2E/DX2                !
 ! D292  D(68,85,94,95)        -60.4914         estimate D2E/DX2                !
 ! D293  D(68,85,94,96)        179.5626         estimate D2E/DX2                !
 ! D294  D(68,85,94,97)         59.509          estimate D2E/DX2                !
 ! D295  D(86,85,94,95)         62.3002         estimate D2E/DX2                !
 ! D296  D(86,85,94,96)        -57.6458         estimate D2E/DX2                !
 ! D297  D(86,85,94,97)       -177.6994         estimate D2E/DX2                !
 ! D298  D(90,85,94,95)        179.7358         estimate D2E/DX2                !
 ! D299  D(90,85,94,96)         59.7897         estimate D2E/DX2                !
 ! D300  D(90,85,94,97)        -60.2638         estimate D2E/DX2                !
 ! D301  D(71,98,99,100)        -6.2619         estimate D2E/DX2                !
 ! D302  D(71,98,99,101)       168.8784         estimate D2E/DX2                !
 ! D303  D(106,98,99,100)      178.5092         estimate D2E/DX2                !
 ! D304  D(106,98,99,101)       -6.3504         estimate D2E/DX2                !
 ! D305  D(71,98,106,104)     -170.589          estimate D2E/DX2                !
 ! D306  D(71,98,106,107)        7.2805         estimate D2E/DX2                !
 ! D307  D(99,98,106,104)        4.719          estimate D2E/DX2                !
 ! D308  D(99,98,106,107)     -177.4116         estimate D2E/DX2                !
 ! D309  D(98,99,101,102)     -174.7188         estimate D2E/DX2                !
 ! D310  D(98,99,101,103)        1.9862         estimate D2E/DX2                !
 ! D311  D(100,99,101,102)       0.3739         estimate D2E/DX2                !
 ! D312  D(100,99,101,103)     177.0789         estimate D2E/DX2                !
 ! D313  D(99,101,103,104)       4.0887         estimate D2E/DX2                !
 ! D314  D(99,101,103,108)    -169.7047         estimate D2E/DX2                !
 ! D315  D(102,101,103,104)   -179.1442         estimate D2E/DX2                !
 ! D316  D(102,101,103,108)      7.0624         estimate D2E/DX2                !
 ! D317  D(101,103,104,105)    178.8495         estimate D2E/DX2                !
 ! D318  D(101,103,104,106)     -5.7114         estimate D2E/DX2                !
 ! D319  D(108,103,104,105)     -7.2818         estimate D2E/DX2                !
 ! D320  D(108,103,104,106)    168.1573         estimate D2E/DX2                !
 ! D321  D(101,103,108,7)     -177.5633         estimate D2E/DX2                !
 ! D322  D(101,103,108,9)        6.0908         estimate D2E/DX2                !
 ! D323  D(104,103,108,7)        8.6697         estimate D2E/DX2                !
 ! D324  D(104,103,108,9)     -167.6761         estimate D2E/DX2                !
 ! D325  D(103,104,106,98)       1.2852         estimate D2E/DX2                !
 ! D326  D(103,104,106,107)   -176.559          estimate D2E/DX2                !
 ! D327  D(105,104,106,98)     176.6352         estimate D2E/DX2                !
 ! D328  D(105,104,106,107)     -1.209          estimate D2E/DX2                !
 ! D329  D(8,109,111,112)     -174.9695         estimate D2E/DX2                !
 ! D330  D(8,109,111,120)        3.8034         estimate D2E/DX2                !
 ! D331  D(9,109,111,112)        2.8376         estimate D2E/DX2                !
 ! D332  D(9,109,111,120)     -178.3895         estimate D2E/DX2                !
 ! D333  D(7,110,122,123)     -177.9667         estimate D2E/DX2                !
 ! D334  D(7,110,122,131)        0.1507         estimate D2E/DX2                !
 ! D335  D(8,110,122,123)        0.1369         estimate D2E/DX2                !
 ! D336  D(8,110,122,131)      178.2544         estimate D2E/DX2                !
 ! D337  D(109,111,112,113)     -1.0995         estimate D2E/DX2                !
 ! D338  D(109,111,112,114)    178.7444         estimate D2E/DX2                !
 ! D339  D(120,111,112,113)   -179.8839         estimate D2E/DX2                !
 ! D340  D(120,111,112,114)     -0.0401         estimate D2E/DX2                !
 ! D341  D(109,111,120,118)   -178.8817         estimate D2E/DX2                !
 ! D342  D(109,111,120,121)      1.0994         estimate D2E/DX2                !
 ! D343  D(112,111,120,118)     -0.1017         estimate D2E/DX2                !
 ! D344  D(112,111,120,121)    179.8795         estimate D2E/DX2                !
 ! D345  D(111,112,114,115)    179.9791         estimate D2E/DX2                !
 ! D346  D(111,112,114,116)      0.1095         estimate D2E/DX2                !
 ! D347  D(113,112,114,115)     -0.1812         estimate D2E/DX2                !
 ! D348  D(113,112,114,116)    179.9492         estimate D2E/DX2                !
 ! D349  D(112,114,116,117)    179.9304         estimate D2E/DX2                !
 ! D350  D(112,114,116,118)     -0.0375         estimate D2E/DX2                !
 ! D351  D(115,114,116,117)      0.061          estimate D2E/DX2                !
 ! D352  D(115,114,116,118)   -179.9069         estimate D2E/DX2                !
 ! D353  D(114,116,118,119)    179.9039         estimate D2E/DX2                !
 ! D354  D(114,116,118,120)     -0.1044         estimate D2E/DX2                !
 ! D355  D(117,116,118,119)     -0.064          estimate D2E/DX2                !
 ! D356  D(117,116,118,120)    179.9277         estimate D2E/DX2                !
 ! D357  D(116,118,120,111)      0.174          estimate D2E/DX2                !
 ! D358  D(116,118,120,121)   -179.8067         estimate D2E/DX2                !
 ! D359  D(119,118,120,111)   -179.8342         estimate D2E/DX2                !
 ! D360  D(119,118,120,121)      0.1851         estimate D2E/DX2                !
 ! D361  D(110,122,123,124)     -1.7492         estimate D2E/DX2                !
 ! D362  D(110,122,123,125)    177.9005         estimate D2E/DX2                !
 ! D363  D(131,122,123,124)   -179.8768         estimate D2E/DX2                !
 ! D364  D(131,122,123,125)     -0.2272         estimate D2E/DX2                !
 ! D365  D(110,122,131,129)   -177.9961         estimate D2E/DX2                !
 ! D366  D(110,122,131,132)      1.6434         estimate D2E/DX2                !
 ! D367  D(123,122,131,129)      0.1392         estimate D2E/DX2                !
 ! D368  D(123,122,131,132)    179.7787         estimate D2E/DX2                !
 ! D369  D(122,123,125,126)   -179.9104         estimate D2E/DX2                !
 ! D370  D(122,123,125,127)      0.095          estimate D2E/DX2                !
 ! D371  D(124,123,125,126)     -0.2692         estimate D2E/DX2                !
 ! D372  D(124,123,125,127)    179.7362         estimate D2E/DX2                !
 ! D373  D(123,125,127,128)    179.994          estimate D2E/DX2                !
 ! D374  D(123,125,127,129)      0.1263         estimate D2E/DX2                !
 ! D375  D(126,125,127,128)     -0.0006         estimate D2E/DX2                !
 ! D376  D(126,125,127,129)   -179.8683         estimate D2E/DX2                !
 ! D377  D(125,127,129,130)    179.6968         estimate D2E/DX2                !
 ! D378  D(125,127,129,131)     -0.2142         estimate D2E/DX2                !
 ! D379  D(128,127,129,130)     -0.1708         estimate D2E/DX2                !
 ! D380  D(128,127,129,131)    179.9182         estimate D2E/DX2                !
 ! D381  D(127,129,131,122)      0.0808         estimate D2E/DX2                !
 ! D382  D(127,129,131,132)   -179.5492         estimate D2E/DX2                !
 ! D383  D(130,129,131,122)   -179.8303         estimate D2E/DX2                !
 ! D384  D(130,129,131,132)      0.5396         estimate D2E/DX2                !
 --------------------------------------------------------------------------------
 Trust Radius=3.00D-01 FncErr=1.00D-07 GrdErr=1.00D-06 EigMax=2.50D+02 EigMin=1.00D-04
 Number of steps in this run=    792 maximum allowed number of steps=    792.
 GradGradGradGradGradGradGradGradGradGradGradGradGradGradGradGradGradGrad

 Stoichiometry    C61H62N8Pd
 Framework group  C1[X(C61H62N8Pd)]
 Deg. of freedom   390
 Full point group                 C1      NOp   1
 Largest Abelian subgroup         C1      NOp   1
 Largest concise Abelian subgroup C1      NOp   1
                         Standard orientation:                         
 ---------------------------------------------------------------------
 Center     Atomic      Atomic             Coordinates (Angstroms)
 Number     Number       Type             X           Y           Z
 ---------------------------------------------------------------------
      1         46           0       -0.180235    0.572516   -0.557310
      2          7           0        0.032778   -2.389526   -1.771663
      3          7           0        1.735971   -1.101448   -1.934961
      4          7           0        1.235673    3.045420   -0.032217
      5          7           0       -0.633874    3.349741    0.971975
      6          7           0       -2.155417    0.079336    0.056946
      7          7           0        4.257858    0.405064    1.551549
      8          7           0        6.203723   -0.194923    0.360428
      9          7           0        4.421263   -1.729214    0.560877
     10          6           0       -4.769301   -2.193414   -3.119808
     11          1           0       -4.772805   -1.108040   -2.987572
     12          1           0       -5.775675   -2.557696   -2.894280
     13          1           0       -4.563112   -2.408928   -4.173920
     14          6           0       -3.732052   -2.834434   -2.211160
     15          1           0       -3.768833   -3.927595   -2.306613
     16          1           0       -3.972939   -2.601688   -1.167939
     17          6           0       -2.323947   -2.342646   -2.513047
     18          1           0       -2.300889   -1.249317   -2.464328
     19          1           0       -2.028722   -2.630271   -3.530056
     20          6           0       -1.314286   -2.882533   -1.515939
     21          1           0       -1.591614   -2.584202   -0.504027
     22          1           0       -1.270625   -3.974469   -1.546019
     23          6           0        1.042699   -3.121048   -2.369769
     24          1           0        0.904959   -4.146604   -2.669537
     25          6           0        2.123638   -2.308401   -2.467644
     26          1           0        3.111898   -2.492164   -2.853947
     27          6           0        0.439574   -1.141349   -1.490763
     28          6           0        2.435145    0.111480   -1.739273
     29          6           0        1.636098    1.042749   -1.099657
     30          6           0        2.172327    2.273031   -0.760558
     31          6           0        3.479751    2.610182   -1.084496
     32          1           0        3.913411    3.565713   -0.811717
     33          6           0        4.250353    1.658926   -1.754928
     34          1           0        5.278151    1.897078   -2.003396
     35          6           0        3.750221    0.397926   -2.083429
     36          1           0        4.385991   -0.328169   -2.578460
     37          6           0        0.010570    2.470739    0.187935
     38          6           0        1.341556    4.258373    0.608765
     39          1           0        2.229027    4.867560    0.572171
     40          6           0        0.156884    4.454101    1.238810
     41          1           0       -0.187033    5.273622    1.847670
[...]
 9276,0.00006845,0.00010940,0.00008469,-0.00008130,0.00000924,-0.000046
 59,-0.00001625,0.00002059,0.00000706,-0.00000891,-0.00020122,-0.000211
 17,-0.00033103,-0.00089485,-0.00182339,0.00008368,-0.00378159,-0.01192
 252,-0.00071207,-0.00006997,0.00018150,-0.00006222,-0.00004973,-0.0000
 5655,-0.00004491,-0.00000087,-0.00002021,-0.00002392,-0.00004549,0.000
 00379,0.00006530,-0.00000116,0.00001075,0.00000684,0.00001402,0.000041
 14,0.00000564,-0.00000487,0.00000749,-0.00000005,0.00002715,-0.0000168
 6,0.00001860,-0.00001398,0.00000732,0.00000414,0.00002126,0.00007295,0
 .00001257,0.00003015,0.00000392,-0.00002438,0.07163420,-0.09414634,-0.
 13687493,0.03581743,0.00824473,-0.00733226,0.00382108,-0.00055966,0.00
 452819,0.00029942,-0.02227632,-0.01445862,-0.00049054,-0.00027257,-0.0
 0075651,-0.01684010,0.01588755,0.02133081,0.00498861,-0.00077897,0.004
 55810,0.02245763,-0.03189358,-0.08575309,-0.00643086,-0.01514631,0.001
 23683,-0.21506800,0.12890486,0.29522588,-0.00000499,0.00000127,0.00000
 207,-0.00000274,0.00000275,0.00000157,-0.00001023,-0.00000879,0.000000
 10,0.00001976,-0.00002628,0.00002269,0.00001533,0.00004300,0.00002061,
 0.00000474,0.00000657,-0.00000131,0.00026513,-0.00218183,-0.00096962,0
 .00007572,0.00038641,-0.00000739,0.00018162,-0.00028972,-0.00006747,0.
 00000016,-0.00000012,-0.00000026,0.00000005,0.00000021,-0.00000015,0.0
 0000022,0.00000008,0.00000007,-0.00000002,-0.00000007,0.00000006,-0.00
 000031,-0.00000038,0.00000003,0.00000014,0.00000062,0.00000017,0.,-0.0
 0000024,0.,0.00000012,0.,-0.00000011,-0.00000073,0.00000027,-0.0000001
 5,0.00000015,0.00000001,0.00000008,-0.00000099,-0.00000227,0.00000039,
 -0.00000052,-0.00000049,0.00000010,0.,0.00000084,0.00000034,-0.0000038
 5,0.00000109,0.00000021,-0.00000019,0.00000023,0.00000106,-0.00000238,
 0.00000785,0.00000247,0.00000046,-0.00000027,0.00000196,0.00001562,-0.
 00000633,-0.00000606,0.00002871,0.00000003,-0.00000546,0.00000682,0.00
 001145,0.00001467,0.00011751,-0.00007178,-0.00003043,0.00003153,0.0000
 1296,-0.00002068,-0.00000057,-0.00003368,0.00004104,-0.00005704,0.0000
 3966,0.00002190,0.00000022,0.00000202,-0.00001200,-0.00001979,-0.00001
 219,0.00000545,-0.00000264,-0.00000403,0.00000304,-0.00001050,-0.00003
 002,-0.00002814,0.00009641,0.00001050,0.00004437,0.00000048,-0.0000028
 7,-0.00000886,-0.00005542,-0.00001055,0.00004666,-0.00000021,0.0000060
 6,-0.00000313,-0.00002271,-0.00000502,0.00000949,0.00000020,0.00000094
 ,-0.00000078,0.00000159,-0.00000261,-0.00000177,0.00000445,0.00000464,
 -0.00000413,-0.00000004,0.00000011,0.00000088,-0.00000010,-0.00000120,
 -0.00000032,-0.00000135,-0.00000361,0.00000323,0.00000042,0.00000018,-
 0.00000012,0.00000022,0.00000020,-0.00000087,0.00000191,0.00000162,-0.
 00000155,0.00000192,-0.00000062,0.00000033,-0.00000042,-0.00000055,0.0
 0000005,-0.00000037,-0.00000040,0.00000029,0.00000091,-0.00000126,0.00
 000243,-0.00000014,0.00000040,-0.00000129,-0.00000188,0.00000142,-0.00
 000011,-0.00000021,-0.00000018,-0.00000009,0.00000111,0.00000109,-0.00
 000093,0.00000070,0.00000018,0.00000055,0.00000041,-0.00000002,-0.0000
 0009,0.00000121,0.00000061,-0.00000110,-0.00000290,0.00000355,-0.00000
 399,-0.00000358,-0.00001069,0.00000650,0.00000441,0.00000039,-0.000000
 01,0.00000024,-0.00000122,0.00000144,0.00000045,0.00000022,0.00000021,
 -0.00000070,0.00000018,-0.00000290,0.00000155,0.00000095,0.00000277,-0
 .00000033,0.00000134,0.00000017,-0.00000715,0.00001045,0.00000319,-0.0
 0000077,0.00000014,-0.00000038,0.00000019,-0.00000016,0.00000036,-0.00
 000007,0.00000013,-0.00000005,0.00000028,-0.00000005,0.00000014,-0.000
 00017,-0.00000008,-0.00000010,0.00000033,0.00000014,0.00000033,-0.0000
 0026,-0.00000005,-0.00000002,0.00000027,-0.00000018,0.00000020,0.00000
 010,0.00000015,-0.00000026,0.00000010,-0.00000023,-0.00000005,0.000000
 02,0.00000007,-0.00000023,0.00000030,-0.00000004,0.00000029,-0.0000000
 7,0.00000014,0.00000004,-0.00000003,-0.00000206,0.00000155,0.00000082,
 0.00000116,-0.00000006,-0.00000001,-0.00000008,0.00000035,0.00000037,0
 .00000043,-0.00000032,-0.00000010,-0.00000093,-0.00000008,0.,0.0000004
 7,-0.00000079,-0.00000059,0.00000005,-0.00000034,0.00000061,0.00000054
 ,-0.00000017,0.00000003,-0.00000021,0.00000020,0.00000032,0.00000137,-
 0.00000027,0.,-0.00000051,0.00000027,0.00000075,0.00000021,-0.00000045
 ,-0.00000067,0.00000012,-0.00000028,0.00002084,-0.00003115,-0.00000371
 ,-0.00002860,0.00002413,0.00000537,-0.00000282,0.00000108,0.00000304,-
 0.00001418,0.00004722,0.00001988,0.00000786,0.00001330,0.00000131,0.00
 000787,-0.00000346,-0.00002059,-0.00003353,-0.00016404,-0.00006390,-0.
 00011799,-0.00013160,0.00006087,0.00001288,0.00008882,0.00001611,-0.00
 001170,-0.00000900,0.00000359,0.00051922,0.00028913,-0.00031129,-0.000
 18533,-0.00016672,0.00015405,-0.00240782,-0.00090454,-0.00101112,0.000
 02157,0.00001590,-0.00000285,0.00000288,0.00000156,-0.00000489,0.00000
 449,0.00000499,0.00000269,0.00000790,0.00000653,-0.00000144,-0.0000000
 5,-0.00000081,0.00000044,0.00000330,-0.00000300,-0.00000235,0.00000092
 ,0.00000015,-0.00000021,0.00000068,-0.00000070,-0.00000402,0.00000256,
 -0.00000235,0.,-0.00001112,-0.00001625,-0.00000459,0.00000310,-0.00000
 726,-0.00000236,-0.01196317,-0.00516418,0.00612276,0.00119106,0.002177
 21,0.00338467,-0.00051561,-0.00043335,0.00034951,0.00029713,0.00024231
 ,-0.00058138,-0.00026664,0.00007663,-0.00040424,0.00241656,-0.00238792
 ,0.00193513,-0.00026520,0.00011646,0.00013629,-0.00343968,0.00021820,0
 .00393207,-0.00023072,0.00051168,-0.00189716,-0.28612490,-0.06776515,0
 .10046753,0.30042892,-0.00002605,0.00000791,-0.00003422,0.00001431,-0.
 00002813,-0.00000835,-0.00001773,-0.00003265,-0.00000259,0.00001947,0.
 00006242,0.00002296,-0.00005308,-0.00016777,-0.00006107,0.00001357,-0.
 00005836,0.00005047,0.00083341,-0.00187252,-0.00098840,-0.00025632,0.0
 0037307,0.00038654,-0.00021696,0.00056832,0.00027156,0.00000006,0.0000
 0056,-0.00000086,-0.00000004,-0.00000088,-0.00000071,0.00000156,0.0000
 0015,0.00000015,-0.00000012,0.00000028,0.00000171,-0.00000031,-0.00000
 206,-0.00000027,-0.00000021,-0.00000006,-0.00000005,-0.00000116,0.0000
 0044,0.00000026,-0.00000232,0.00000186,0.00000073,0.00000042,-0.000000
 63,-0.00000016,0.00000095,0.,0.00000320,-0.00000068,-0.00000277,-0.000
 00847,-0.00000675,0.00000199,-0.00000252,-0.00000130,-0.00000171,-0.00
 000109,-0.00000957,-0.00001859,0.00000351,-0.00000107,-0.00000032,-0.0
 0000532,0.00000188,0.00000376,0.00000456,-0.00000279,0.00000183,-0.000
 01172,-0.00000115,0.00000726,0.00000302,-0.00002260,0.00001464,0.00000
 805,0.00001011,-0.00004941,-0.00000555,-0.00003658,0.00008170,0.000092
 04,0.00004726,0.00006653,-0.00000595,-0.00003610,-0.00005561,0.0000508
 3,-0.00000745,-0.00000783,-0.00000382,0.00000287,0.00000497,0.00000824
 ,0.00002424,-0.00002894,0.00000815,0.00000126,-0.00000561,-0.00001564,
 -0.00006171,0.00002856,0.00008076,-0.00008562,0.00013901,-0.00003555,0
 .00000864,-0.00008992,0.00011044,0.00013297,0.00003530,-0.00012097,0.0
 0001692,-0.00001517,0.00000615,0.00004503,-0.00000334,-0.00001499,-0.0
 0000155,0.00000594,0.00000103,-0.00001293,0.00000970,0.00000176,-0.000
 00691,0.00000197,0.00000994,0.00000134,-0.00000865,-0.00000205,0.00000
 224,0.00000262,-0.00000020,0.00000347,0.00000567,-0.00000209,-0.000003
 19,-0.00000143,0.00000058,0.00000024,0.00000101,-0.00000006,-0.0000032
 4,-0.00000157,0.00000256,-0.00000379,0.00000102,0.00000027,0.00000103,
 0.00000165,-0.00000121,0.00000103,-0.00000287,-0.00000101,0.00000588,-
 0.00000478,-0.00000164,-0.00000294,0.00000322,0.00000385,0.00000528,-0
 .00000609,0.00000317,0.00000111,-0.00000051,0.00000329,0.00000208,-0.0
 0000572,0.00000345,-0.00000700,-0.00000245,-0.00000257,0.00000013,0.00
 000168,-0.00000037,0.00001801,0.00001116,-0.00001030,-0.00004427,0.000
 00660,-0.00000651,0.00004416,0.00007721,-0.00004906,-0.00003368,-0.000
 02079,0.00001482,0.00001437,0.00003057,-0.00003093,0.00000390,0.000000
 73,0.00000065,0.00003707,-0.00001306,0.00002060,-0.00000416,-0.0000438
 3,0.00001170,-0.00000670,-0.00000423,0.00000587,0.00001111,0.00002264,
 -0.00001269,-0.00000591,0.00000200,-0.00000026,0.00000099,-0.00000079,
 0.00000164,-0.00000076,-0.00000134,-0.00000061,0.00000156,-0.00000020,
 0.00000074,-0.00000061,0.00000070,-0.00000032,0.00000267,0.00000098,0.
 00000198,0.00000059,0.00000067,-0.00000113,0.00000169,-0.00000167,0.00
 000050,-0.00000110,0.00000066,0.00000067,0.00000336,-0.00000120,0.0000
 0016,-0.00000079,0.00000045,-0.00000070,0.00000166,0.00000014,0.000001
 79,-0.00000073,-0.00000102,-0.00000079,0.00000005,-0.00000274,0.000007
 46,0.00000097,0.00000156,-0.00000049,0.00000007,-0.00000372,-0.0000016
 1,0.00000236,0.00000228,-0.00000174,-0.00000144,0.00000085,0.00000271,
 0.00000213,0.00000183,-0.00000393,-0.00000085,-0.00000148,0.00000063,0
 .00000162,0.00000359,-0.00000104,-0.00000061,-0.00000157,-0.00000058,0
 .00000159,0.00000326,0.00000061,-0.00000148,-0.00000002,0.00000002,0.0
 0000176,0.00000149,-0.00000302,-0.00000031,-0.00000041,0.00000150,-0.0
 0002321,0.00000355,-0.00001854,0.00009032,-0.00002469,0.00000753,0.000
 01568,0.00001150,0.00000317,-0.00002825,-0.00009548,-0.00003729,-0.000
 01097,0.00000143,0.00000021,0.00020196,0.00005256,-0.00001541,0.000010
 62,-0.00015944,0.00000076,-0.00043180,0.00008378,0.00001997,0.00004943
 ,0.00018018,0.00004833,0.00002456,-0.00001004,-0.00000684,-0.00118207,
 -0.00072167,0.00030842,0.00011472,-0.00014308,-0.00021818,0.00072100,0
 .00009360,0.00086811,-0.00006276,0.00008944,0.00007102,-0.00004873,-0.
 00003238,0.00001607,-0.00000044,-0.00002239,-0.00001520,-0.00004075,-0
 .00000747,0.00001547,0.00000063,0.00001065,0.00000426,-0.00001506,0.00
 002315,0.00001977,-0.00000452,0.00000436,0.00000409,0.00000975,0.00002
 659,0.00001222,-0.00001297,0.00000460,0.00000659,0.00004944,0.00006505
 ,0.00000931,0.00001226,0.00000528,-0.00000591,0.01852834,0.01061730,-0
 .00694211,0.00143930,-0.00259219,-0.00394481,0.00109882,0.00041030,-0.
 00052118,0.00037386,-0.00093835,-0.00017346,0.00011474,-0.00001364,0.0
 0032865,-0.00222889,-0.00408375,-0.00307767,-0.00116182,-0.00023753,0.
 00054460,-0.02524613,-0.00221335,0.01054394,0.00109703,0.00067787,0.00
 122982,-0.06931449,-0.07380778,0.02299120,0.07550263,0.07371205,-0.000
 01030,0.00000443,0.00000774,0.00001519,0.00006597,0.00001366,0.0000719
 0,0.00009239,0.00001354,0.00000142,-0.00008881,-0.00004618,0.00011320,
 0.00009728,-0.00003155,0.00005293,0.00001719,-0.00001671,0.00011037,0.
 00037519,0.00017326,-0.00022093,-0.00002377,-0.00010879,-0.00006898,0.
 00019150,0.00041456,0.00000220,0.00000100,-0.00000307,-0.00000038,0.00
 000045,-0.00000037,0.00000360,0.00000032,0.00000075,-0.00000071,-0.000
 00037,0.00000110,-0.00000217,-0.00000493,0.00000420,0.00000094,0.00000
 306,0.00000028,-0.00000001,-0.00000051,-0.00000017,0.00000522,0.000003
 60,-0.00000756,-0.00000371,0.00000212,-0.00000080,-0.00000078,-0.00000
 030,0.00000066,-0.00002946,-0.00001648,0.00000817,0.00000177,-0.000000
 67,0.00000062,0.00000301,0.00000491,0.00000119,0.00002971,0.00003777,0
 .00000058,0.00000238,0.00000169,0.00000031,0.00001713,-0.00005566,-0.0
 0002187,-0.00000058,-0.00000355,-0.00000143,-0.00007212,-0.00003617,0.
 00001752,-0.00005709,-0.00007333,0.00000218,-0.00006730,-0.00004131,0.
 00002137,-0.00010670,-0.00003190,0.00004568,0.00001414,-0.00000241,0.0
 0014691,0.00007655,0.00014104,-0.00011124,0.00013712,-0.00009879,-0.00
 002073,-0.00001638,0.00000491,0.00002259,0.00003369,0.00006245,-0.0000
 0279,0.00000192,0.00002026,0.00000288,-0.00008265,-0.00005659,-0.00000
 026,0.00002241,0.00004439,0.00008434,-0.00000866,0.00010594,-0.0000526
 5,-0.00005268,-0.00004958,0.00002371,0.00001817,-0.00000746,0.00001180
 ,-0.00007488,-0.00000936,0.00004820,0.00001641,-0.00000496,-0.00001443
 ,0.00000693,0.00000034,-0.00000159,0.00001606,0.00001222,-0.00001870,-
 0.00000183,-0.00000069,0.00000307,-0.00000485,0.00000012,-0.00000468,-
 0.00000318,-0.00000885,0.00001280,0.00000056,0.00000050,0.00000024,0.0
 0000205,0.00000037,-0.00000505,0.00000574,0.00000461,-0.00000470,0.000
 00494,-0.00000142,0.00000133,-0.00000147,-0.00000063,-0.00000103,-0.00
 000115,-0.00000240,0.00000078,0.00000371,-0.00001177,0.00001365,-0.000
 00124,0.00000294,-0.00000586,-0.00000832,0.00000302,-0.00000181,-0.000
 00077,-0.00000069,0.00000141,0.00000688,0.00000287,-0.00000435,0.00000
 231,0.00000002,0.00000056,0.00000259,0.00000114,-0.00000024,0.00001534
 ,0.00000682,-0.00000757,-0.00003021,0.00002567,-0.00003364,0.00000218,
 -0.00003134,0.00003732,0.00002033,-0.00000098,-0.00000007,0.00000327,0
 .00000211,-0.00000288,0.00000319,0.00000157,0.00000054,0.00000940,0.00
 000052,-0.00000047,-0.00000294,-0.00001472,0.00000275,-0.00000316,0.00
 000283,0.00000131,-0.00000236,0.00000858,-0.00000976,-0.00000565,0.000
 00197,-0.00000180,0.00000126,-0.00000096,0.00000213,-0.00000079,-0.000
 00020,-0.00000047,0.00000197,-0.00000039,0.00000097,-0.00000090,0.0000
 0007,-0.00000059,0.00000214,0.00000078,0.00000218,-0.00000065,0.000000
 05,-0.00000078,0.00000206,-0.00000143,0.00000109,-0.00000024,0.0000009
 6,-0.00000077,0.00000175,-0.00000131,0.00000006,-0.00000030,0.00000081
 ,-0.00000147,0.00000223,-0.00000027,0.00000193,-0.00000093,-0.00000022
 ,-0.00000036,-0.00000176,-0.00000627,0.00000815,0.00000334,0.00000374,
 0.00000062,0.00000021,-0.00000188,0.00000004,0.00000147,0.00000214,-0.
 00000184,-0.00000103,-0.00000186,0.00000017,0.00000074,0.00000236,-0.0
 0000385,-0.00000225,-0.00000052,-0.00000058,0.00000253,0.00000324,-0.0
 0000108,0.00000011,-0.00000179,-0.00000002,0.00000186,0.00000572,0.000
 00024,-0.00000086,-0.00000147,-0.00000008,0.00000279,0.00000094,-0.000
 00272,-0.00000180,0.00000010,0.,0.00000014,0.00000278,0.00000415,0.000
 02434,-0.00000298,-0.00000552,0.00000783,0.00000046,0.00000766,0.00000
 051,-0.00002818,-0.00003121,-0.00000172,-0.00000114,0.00000633,0.00004
 597,0.00005002,-0.00002599,-0.00001759,-0.00000092,-0.00010624,-0.0000
 7836,-0.00006429,0.00020598,0.00000049,0.00005085,-0.00001612,0.000008
 68,-0.00001002,0.00001428,-0.00076240,-0.00016975,-0.00016801,0.000268
 32,-0.00002908,0.00012954,-0.00032713,0.00187937,-0.00262729,-0.000036
 17,0.00001977,0.00001455,-0.00001931,-0.00000541,-0.00000114,0.0000001
 0,-0.00001225,0.00000060,-0.00001820,-0.00000542,0.00000141,0.00000110
 ,0.00000147,0.00000246,-0.00000587,0.00000811,0.00000767,-0.00000138,0
 .00000040,0.00000159,-0.00000067,0.00000787,0.00000194,-0.00000365,0.0
 0000144,0.00000617,0.00002138,0.00003400,0.00000235,0.00000206,0.00000
 510,0.00000376,0.01397944,0.00512375,-0.00149995,0.00347984,-0.0041453
 3,0.00329322,0.00087726,0.00023850,0.00007298,-0.00057359,-0.00033884,
 -0.00091813,-0.00038889,0.00033471,-0.00079701,0.00181824,-0.00291898,
 0.00602146,-0.00030470,-0.00011390,0.00006793,-0.00467645,-0.00211514,
 0.00577060,-0.00175349,0.00156764,-0.00298165,0.09986813,0.02178641,-0
 .08201884,-0.11136042,-0.02182904,0.07495867\\0.00000182,-0.00000444,0
 .00000496,-0.00000159,-0.00000031,-0.00000339,-0.00000126,0.00000035,-
 0.00000440,0.00000177,0.00000071,-0.00000153,0.00000138,-0.00000120,0.
 00000338,-0.00000370,0.00000141,-0.00000672,0.00000201,0.00000100,0.00
 000224,0.00000354,-0.00000356,0.00000457,0.00000369,-0.00000133,0.0000
 0087,0.00000110,-0.00000059,-0.00000137,0.00000036,-0.00000286,-0.0000
 0063,-0.00000032,0.00000016,0.00000083,-0.00000009,-0.00000104,0.00000
 007,-0.00000012,-0.00000085,0.00000059,0.00000036,-0.00000025,-0.00000
 033,-0.00000022,-0.00000048,-0.00000022,0.00000028,0.00000043,0.000000
 44,-0.00000054,-0.00000145,-0.00000095,0.00000020,-0.00000041,0.000000
 46,-0.00000018,0.00000037,-0.00000104,-0.00000004,-0.00000019,0.000001
 56,0.00000019,-0.00000016,-0.00000034,-0.00000122,-0.00000102,0.000003
 81,0.00000034,-0.00000033,0.00000032,0.00000193,0.00000144,0.00000182,
 0.00000003,0.00000037,-0.00000065,0.00000097,0.00000153,0.00000152,-0.
 00000093,0.00000143,-0.00000169,-0.00000194,0.00000246,-0.00000462,0.0
 0000230,0.00000164,0.00000071,-0.00000501,0.00000253,-0.00000679,-0.00
 000008,-0.00000048,-0.00000111,-0.00000570,0.00000316,-0.00000935,-0.0
 0000084,-0.00000039,0.00000012,-0.00000372,0.00000422,-0.00000680,-0.0
 0000029,-0.00000005,-0.00000016,-0.00000333,0.00000494,-0.00000654,0.0
 0000034,-0.00000114,-0.00000080,0.00000038,-0.00000015,-0.00000011,-0.
 00000016,0.00000076,0.00000033,0.00000011,0.00000015,-0.00000006,0.000
 00118,-0.00000013,-0.00000169,-0.00000026,-0.00000035,0.00000003,-0.00
 000021,-0.00000072,-0.00000012,-0.00000143,-0.00000165,0.00000075,-0.0
 0000006,-0.00000033,-0.00000090,0.00000111,0.,-0.00000197,0.00000052,0
 .00000023,0.00000125,-0.00000003,-0.00000174,0.,-0.00000050,-0.0000005
 9,-0.00000072,-0.00000275,-0.00000214,-0.00000175,0.00000005,0.0000003
 8,0.00000014,-0.00000111,-0.00000001,-0.00000187,0.00000027,-0.0000001
 2,-0.00000105,0.00000055,0.00000180,0.00000315,-0.00000020,0.00000050,
 -0.00000043,-0.00000116,0.00000080,-0.00000031,0.00000013,-0.00000036,
 -0.00000024,-0.00000089,0.00000332,0.00000192,-0.00000013,0.00000342,0
 .00000328,-0.00000013,-0.00000062,0.00000021,0.00000004,-0.00000007,-0
 .00000214,-0.00000068,0.00000172,0.00000221,0.00000204,0.00000117,-0.0
 0000040,-0.00000086,0.00000124,0.00000015,0.00000090,-0.00000168,0.000
 00012,-0.00000008,-0.00000042,0.00000024,-0.00000085,0.00000144,0.0000
 0077,0.00000114,0.00000243,-0.00000070,-0.00000010,-0.00000002,0.00000
 002,-0.00000022,-0.00000380,0.00000448,0.00000002,-0.00000011,-0.00000
 085,0.00000016,-0.00000049,0.00000076,-0.00000013,-0.00000021,0.000000
 24,0.00000002,-0.00000022,0.,0.00000025,-0.00000015,0.00000025,0.00000
 234,0.,0.00000043,0.00000075,0.00000101,0.00000258,-0.00000020,0.00000
 008,0.00000035,-0.00000012,-0.00000006,-0.00000028,-0.00000013,-0.0000
 0003,0.00000082,-0.00000005,-0.00000026,-0.00000010,-0.00000018,-0.000
 00021,0.00000005,-0.00000066,0.00000010,-0.00000049,-0.00000034,-0.000
 00052,-0.00000081,-0.00000011,-0.00000046,0.00000037,-0.00000009,-0.00
 000012,0.00000049,0.00000021,0.00000012,0.00000038,0.00000043,0.000000
 44,-0.00000005,0.00000031,0.00000090,0.00000137,0.00000009,0.00000033,
 -0.00000014,0.00000025,0.00000023,0.00000043,0.00000016,-0.00000017,0.
 00000025,0.00000008,0.00000032,0.00000055,0.00000027,0.00000015,0.0000
 0003,0.,0.00000026,0.00000049,0.00000015,-0.00000013,0.00000050,0.0000
 0142,-0.00000389,-0.00000321,-0.00000373,0.00000149,0.00000066,0.00000
 071,-0.00000024,0.00000058,0.00000271,0.00000221,0.00000051,0.00000012
 ,-0.00000027,0.00000034,0.00000234,-0.00000366,-0.00000005,-0.00000168
 ,0.00000048,0.00000252,0.00000081,0.00000015,0.00000036,0.00000262,0.0
 0000087,0.00000361,-0.00000032,-0.00000065,0.00000060,0.00000092,-0.00
 000342,0.00000457,0.00000121,-0.00000129,0.00000615,0.00000006,-0.0000
 0416,0.00000088,-0.00000081,0.00000160,0.00000008,-0.00000077,0.000001
 08,-0.00000074,0.00000001,-0.00000027,0.00000104,0.00000015,-0.0000004
 6,-0.00000052,-0.00000014,-0.00000010,-0.00000005,-0.00000002,-0.00000
 017,-0.00000020,-0.00000009,-0.00000009,-0.00000003,-0.00000031,0.0000
 0022,-0.00000005,0.,-0.00000012,-0.00000002,0.00000070,-0.00000023,0.0
 0000008,-0.00000019,0.00000001,-0.00000005,0.00000360,-0.00000093,0.00
 000353,-0.00000193,-0.00000090,-0.00000066,0.00000023,-0.00000006,0.00
 000008,-0.00000029,0.00000165,-0.00000046,-0.00000010,0.00000006,-0.00
 000047,0.00000126,0.00000028,-0.00000074,-0.00000026,0.00000014,-0.000
 00087,-0.00000083,-0.00000033,-0.00000083,0.00000020,0.00000010,0.0000
 0020,0.00000111,0.00000008,0.00000224,-0.00000028,-0.00000003,-0.00000
 016\\\@
 The archive entry for this job was punched.


 If your ship doesn't come in, swim out to it!
                          -- Jonathan Winters
 Job cpu time:       8 days 10 hours 37 minutes 35.8 seconds.
 Elapsed time:       0 days  2 hours 17 minutes 45.8 seconds.
 File lengths (MBytes):  RWF=  31464 Int=      0 D2E=      0 Chk=    275 Scr=      1
 Normal termination of Gaussian 16 at Sun Jan 18 19:48:08 2026.
