 Entering Gaussian System, Link 0=g16
 Initial command:
 /public/software/g16/l1.exe "/tmp/Gau-57646.inp" -scrdir="/tmp/"
 Entering Link 1 = /public/software/g16/l1.exe PID=     57648.
  
 Copyright (c) 1988-2021, Gaussian, Inc.  All Rights Reserved.
  
 This is part of the Gaussian(R) 16 program.  It is based on
 the Gaussian(R) 09 system (copyright 2009, Gaussian, Inc.),
 the Gaussian(R) 03 system (copyright 2003, Gaussian, Inc.),
 the Gaussian(R) 98 system (copyright 1998, Gaussian, Inc.),
 the Gaussian(R) 94 system (copyright 1995, Gaussian, Inc.),
 the Gaussian 92(TM) system (copyright 1992, Gaussian, Inc.),
 the Gaussian 90(TM) system (copyright 1990, Gaussian, Inc.),
 the Gaussian 88(TM) system (copyright 1988, Gaussian, Inc.),
 the Gaussian 86(TM) system (copyright 1986, Carnegie Mellon
 University), and the Gaussian 82(TM) system (copyright 1983,
 Carnegie Mellon University). Gaussian is a federally registered
 trademark of Gaussian, Inc.
  
 This software contains proprietary and confidential information,
 including trade secrets, belonging to Gaussian, Inc.
  
 This software is provided under written license and may be
 used, copied, transmitted, or stored only in accord with that
 written license.
  
 The following legend is applicable only to US Government
 contracts under FAR:
  
                    RESTRICTED RIGHTS LEGEND
  
 Use, reproduction and disclosure by the US Government is
 subject to restrictions as set forth in subparagraphs (a)
 and (c) of the Commercial Computer Software - Restricted
 Rights clause in FAR 52.227-19.
  
 Gaussian, Inc.
 340 Quinnipiac St., Bldg. 40, Wallingford CT 06492
  
  
 ---------------------------------------------------------------
 Warning -- This program may not be used in any manner that
 competes with the business of Gaussian, Inc. or will provide
 assistance to any competitor of Gaussian, Inc.  The licensee
 of this program is prohibited from giving any competitor of
 Gaussian, Inc. access to this program.  By using this program,
 the user acknowledges that Gaussian, Inc. is engaged in the
 business of creating and licensing software in the field of
 computational chemistry and represents and warrants to the
 licensee that it is not a competitor of Gaussian, Inc. and that
 it will not use this program in any manner prohibited above.
 ---------------------------------------------------------------
  

 Cite this work as:
 Gaussian 16, Revision C.02,
 M. J. Frisch, G. W. Trucks, H. B. Schlegel, G. E. Scuseria, 
 M. A. Robb, J. R. Cheeseman, G. Scalmani, V. Barone, 
 G. A. Petersson, H. Nakatsuji, X. Li, M. Caricato, A. V. Marenich, 
 J. Bloino, B. G. Janesko, R. Gomperts, B. Mennucci, H. P. Hratchian, 
 J. V. Ortiz, A. F. Izmaylov, J. L. Sonnenberg, D. Williams-Young, 
 F. Ding, F. Lipparini, F. Egidi, J. Goings, B. Peng, A. Petrone, 
 T. Henderson, D. Ranasinghe, V. G. Zakrzewski, J. Gao, N. Rega, 
 G. Zheng, W. Liang, M. Hada, M. Ehara, K. Toyota, R. Fukuda, 
 J. Hasegawa, M. Ishida, T. Nakajima, Y. Honda, O. Kitao, H. Nakai, 
 T. Vreven, K. Throssell, J. A. Montgomery, Jr., J. E. Peralta, 
 F. Ogliaro, M. J. Bearpark, J. J. Heyd, E. N. Brothers, K. N. Kudin, 
 V. N. Staroverov, T. A. Keith, R. Kobayashi, J. Normand, 
 K. Raghavachari, A. P. Rendell, J. C. Burant, S. S. Iyengar, 
 J. Tomasi, M. Cossi, J. M. Millam, M. Klene, C. Adamo, R. Cammi, 
 J. W. Ochterski, R. L. Martin, K. Morokuma, O. Farkas, 
 J. B. Foresman, and D. J. Fox, Gaussian, Inc., Wallingford CT, 2019.
 
 ******************************************
 Gaussian 16:  ES64L-G16RevC.02  7-Dec-2021
                19-Jan-2026 
 ******************************************
 %nprocshared=96
 Will use up to   96 processors via shared memory.
 %mem=345GB
 %chk=s1.chk
 -------------------------------------------------------------------
 # opt td=(nstates=5) PBE1PBE/genecp scrf=(solvent=toluene) em=gd3bj
 -------------------------------------------------------------------
 1/18=20,19=15,26=3,38=1/1,3;
 2/9=110,12=2,17=6,18=5,40=1/2;
 3/5=7,11=9,16=1,17=8,25=1,30=1,70=2201,71=1,72=13,74=-13,124=41/1,2,3,8;
 4//1;
 5/5=2,38=5,53=13/2;
 8/6=1,10=1,108=5/1;
 9/15=2,41=5,42=1,70=2/14;
 10/5=4/2;
 6/7=2,8=2,9=2,10=2/1;
 7/12=6,13=5/1,2,3,16;
 1/18=20,19=15,26=3/3(2);
 2/9=110/2;
 99//99;
 2/9=110/2;
 3/5=7,6=1,11=9,16=1,17=8,25=1,30=1,70=2205,71=1,72=13,74=-13,82=7,124=41/1,2,3,8;
 4/5=5,16=3,69=1/1;
 5/5=2,38=5,53=13/2;
 8/6=1,10=1,108=5/1;
 9/15=2,41=5,42=1,49=4,70=2/14;
 10/5=4/2;
 7/12=6,13=5/1,2,3,16;
 1/18=20,19=15,26=3/3(-8);
 2/9=110/2;
 6/7=2,8=2,9=2,10=2/1;
 99/9=10/99;
 ------
 s1 opt
 ------
 Symbolic Z-matrix:
 Charge =  0 Multiplicity = 1
 Pd                   -0.12953   0.48264  -0.54398 
 N                     0.04339  -2.57036  -1.53381 
 N                     1.76023  -1.32277  -1.79954 
 N                     1.35974   2.94434  -0.15565 
 N                    -0.49279   3.36737   0.8306 
 N                    -2.14158   0.08131   0.03506 
 N                     4.2511    0.42919   1.69021 
 N                     6.11859  -0.25671   0.389 
 N                     4.27247  -1.73962   0.71848 
 C                    -4.74179  -2.56005  -2.96696 
 H                    -4.71896  -1.46871  -3.03383 
 H                    -5.75661  -2.85679  -2.68748 
 H                    -4.53897  -2.96089  -3.96507 
 C                    -3.71895  -3.05489  -1.9565 
 H                    -3.76853  -4.14792  -1.8772 
 H                    -3.96879  -2.66387  -0.96294 
 C                    -2.30143  -2.63341  -2.31614 
 H                    -2.25922  -1.54667  -2.44399 
 H                    -2.00467  -3.07713  -3.27376 
 C                    -1.30412  -3.02852  -1.24078 
 H                    -1.59494  -2.60413  -0.27943 
 H                    -1.26265  -4.11411  -1.12209 
 C                     1.05214  -3.36582  -2.05039 
 H                     0.90902  -4.41526  -2.24624 
 C                     2.14224  -2.5764   -2.20989 
 H                     3.14356  -2.80886  -2.53311 
 C                     0.46623  -1.30627  -1.3657 
 C                     2.47954  -0.11158  -1.68935 
 C                     1.7031    0.873    -1.10751 
 C                     2.2701    2.10545  -0.84325 
 C                     3.58246   2.39183  -1.19048 
 H                     4.04336   3.34514  -0.9592 
 C                     4.32631   1.38742  -1.80773 
 H                     5.36246   1.57972  -2.05765 
 C                     3.79573   0.12251  -2.05931 
 H                     4.41776  -0.65586  -2.48555 
 C                     0.12172   2.42555   0.09296 
 C                     1.51198   4.1827    0.42031 
 H                     2.42619   4.74867   0.36095 
 C                     0.33682   4.45583   1.03849 
 H                     0.02422   5.31605   1.60676 
 C                    -1.86574   3.2736    1.29759 
 H                    -1.90084   3.64249   2.32666 
 H                    -2.11771   2.21332   1.31496 
 C                    -2.83218   4.04079   0.41095 
 H                    -2.58909   5.10974   0.44279 
 H                    -2.69103   3.71455  -0.62535 
 C                    -4.28026   3.82249   0.82358 
 H                    -4.52248   2.75788   0.72566 
 H                    -4.4016    4.07266   1.88494 
 C                    -5.24765   4.64496  -0.01248 
 H                    -6.28523   4.45541   0.27552 
 H                    -5.14606   4.40131  -1.07389 
 H                    -5.05931   5.7168    0.10437 
 C                    -3.21537   1.23499  -1.88669 
 H                    -2.27761   1.57213  -2.31497 
 C                    -4.43144   1.51156  -2.48567 
 H                    -4.4336    2.08249  -3.40698 
 C                    -5.65658   1.06281  -1.95493 
 C                    -5.64406   0.32482  -0.75956 
 H                    -6.57035  -0.03414  -0.32893 
 C                    -4.4421    0.04193  -0.14196 
 C                    -3.21959   0.48835  -0.70486 
 C                    -2.64163  -0.63083   1.1017 
 C                    -4.06161  -0.70619   1.0468 
 C                    -4.76352  -1.43522   1.97693 
 H                    -5.84482  -1.49536   1.91825 
 C                    -4.06926  -2.12167   2.99647 
 C                    -2.67541  -2.03073   3.03806 
 H                    -2.12635  -2.54334   3.81719 
 C                    -1.93068  -1.28982   2.11871 
 C                    -6.94826   1.35266  -2.7116 
 C                    -8.1784    0.80013  -1.99252 
 H                    -8.13372  -0.28794  -1.88771 
 H                    -9.07363   1.03842  -2.57261 
 H                    -8.30089   1.24172  -0.99897 
 C                    -7.12625   2.86833  -2.87363 
 H                    -7.21599   3.35645  -1.90009 
 H                    -8.03609   3.07462  -3.44506 
 H                    -6.28769   3.32422  -3.40579 
 C                    -6.86617   0.69862  -4.09972 
 H                    -6.02728   1.08681  -4.6825 
 H                    -7.78517   0.89895  -4.65862 
 H                    -6.74649  -0.38482  -4.01472 
 C                    -4.86236  -2.93824   4.00811 
 C                    -3.96553  -3.61508   5.04331 
 H                    -3.2627   -4.31229   4.57837 
 H                    -4.58492  -4.18523   5.74057 
 H                    -3.39557  -2.88593   5.62607 
 C                    -5.64851  -4.02658   3.2614 
 H                    -6.35055  -3.60101   2.53976 
 H                    -6.22327  -4.62539   3.97419 
 H                    -4.97061  -4.69406   2.72182 
 C                    -5.84137  -2.01196   4.74451 
 H                    -5.30323  -1.22463   5.27973 
 H                    -6.42034  -2.58725   5.47309 
 H                    -6.54678  -1.53505   4.05916 
 C                    -0.45572  -1.22533   2.17096 
 C                     0.31654  -2.34615   1.85187 
 H                    -0.17172  -3.30023   1.678 
 C                     1.68459  -2.22296   1.67264 
 H                     2.28324  -3.06389   1.34317 
 C                     2.31188  -0.98842   1.83991 
 C                     1.56136   0.09577   2.29034 
 H                     2.06833   1.04049   2.44301 
 C                     0.18531  -0.01532   2.43191 
 H                    -0.40338   0.84965   2.72006 
 C                     3.71781  -0.77852   1.41426 
 C                     5.50094  -1.45603   0.18232 
 C                     5.46753   0.61785   1.11795 
 C                     6.10044  -2.41062  -0.70203 
 C                     5.46628  -3.64533  -0.99004 
 H                     4.53057  -3.86704  -0.4908 
 C                     6.02803  -4.54559  -1.87655 
 H                     5.51994  -5.48601  -2.0729 
 C                     7.23964  -4.26763  -2.51546 
 H                     7.67636  -4.97743  -3.20899 
 C                     7.87995  -3.05608  -2.23502 
 H                     8.82516  -2.82364  -2.71759 
 C                     7.33108  -2.14666  -1.35192 
 H                     7.83075  -1.2092   -1.13898 
 C                     6.06833   1.95904   1.2847 
 C                     7.30955   2.26642   0.72097 
 H                     7.83604   1.4836    0.18753 
 C                     7.84247   3.54097   0.84056 
 H                     8.80765   3.76563   0.39756 
 C                     7.14479   4.53308   1.52776 
 H                     7.56348   5.52996   1.62131 
 C                     5.91206   4.23349   2.0974 
 H                     5.36653   4.99847   2.64194 
 C                     5.37687   2.95665   1.97829 
 H                     4.4181    2.70205   2.41355 
 

 GradGradGradGradGradGradGradGradGradGradGradGradGradGradGradGradGradGrad
 Berny optimization.
 Initialization pass.
                           ----------------------------
                           !    Initial Parameters    !
                           ! (Angstroms and Degrees)  !
 --------------------------                            --------------------------
 ! Name  Definition              Value          Derivative Info.                !
 --------------------------------------------------------------------------------
 ! R1    R(1,6)                  2.1318         estimate D2E/DX2                !
 ! R2    R(1,27)                 2.0568         estimate D2E/DX2                !
 ! R3    R(1,29)                 1.9566         estimate D2E/DX2                !
 ! R4    R(1,37)                 2.06           estimate D2E/DX2                !
 ! R5    R(2,20)                 1.4531         estimate D2E/DX2                !
 ! R6    R(2,23)                 1.3846         estimate D2E/DX2                !
 ! R7    R(2,27)                 1.3435         estimate D2E/DX2                !
 ! R8    R(3,25)                 1.3733         estimate D2E/DX2                !
 ! R9    R(3,27)                 1.3649         estimate D2E/DX2                !
 ! R10   R(3,28)                 1.413          estimate D2E/DX2                !
 ! R11   R(4,30)                 1.4161         estimate D2E/DX2                !
 ! R12   R(4,37)                 1.3652         estimate D2E/DX2                !
 ! R13   R(4,38)                 1.3742         estimate D2E/DX2                !
 ! R14   R(5,37)                 1.3449         estimate D2E/DX2                !
 ! R15   R(5,40)                 1.3843         estimate D2E/DX2                !
 ! R16   R(5,42)                 1.4532         estimate D2E/DX2                !
 ! R17   R(6,63)                 1.3694         estimate D2E/DX2                !
 ! R18   R(6,64)                 1.3766         estimate D2E/DX2                !
 ! R19   R(7,108)                1.3487         estimate D2E/DX2                !
 ! R20   R(7,110)                1.3575         estimate D2E/DX2                !
 ! R21   R(8,109)                1.3648         estimate D2E/DX2                !
 ! R22   R(8,110)                1.3115         estimate D2E/DX2                !
 ! R23   R(9,108)                1.3098         estimate D2E/DX2                !
 ! R24   R(9,109)                1.37           estimate D2E/DX2                !
 ! R25   R(10,11)                1.0936         estimate D2E/DX2                !
 ! R26   R(10,12)                1.0936         estimate D2E/DX2                !
 ! R27   R(10,13)                1.0946         estimate D2E/DX2                !
 ! R28   R(10,14)                1.5206         estimate D2E/DX2                !
 ! R29   R(14,15)                1.097          estimate D2E/DX2                !
 ! R30   R(14,16)                1.0966         estimate D2E/DX2                !
 ! R31   R(14,17)                1.522          estimate D2E/DX2                !
 ! R32   R(17,18)                1.0951         estimate D2E/DX2                !
 ! R33   R(17,19)                1.0964         estimate D2E/DX2                !
 ! R34   R(17,20)                1.5189         estimate D2E/DX2                !
 ! R35   R(20,21)                1.0904         estimate D2E/DX2                !
 ! R36   R(20,22)                1.0928         estimate D2E/DX2                !
 ! R37   R(23,24)                1.0771         estimate D2E/DX2                !
 ! R38   R(23,25)                1.3553         estimate D2E/DX2                !
 ! R39   R(25,26)                1.0776         estimate D2E/DX2                !
 ! R40   R(28,29)                1.3823         estimate D2E/DX2                !
 ! R41   R(28,35)                1.3871         estimate D2E/DX2                !
 ! R42   R(29,30)                1.3821         estimate D2E/DX2                !
 ! R43   R(30,31)                1.3874         estimate D2E/DX2                !
 ! R44   R(31,32)                1.0838         estimate D2E/DX2                !
 ! R45   R(31,33)                1.394          estimate D2E/DX2                !
 ! R46   R(33,34)                1.0831         estimate D2E/DX2                !
 ! R47   R(33,35)                1.3946         estimate D2E/DX2                !
 ! R48   R(35,36)                1.0837         estimate D2E/DX2                !
 ! R49   R(38,39)                1.0769         estimate D2E/DX2                !
 ! R50   R(38,40)                1.3556         estimate D2E/DX2                !
 ! R51   R(40,41)                1.0773         estimate D2E/DX2                !
 ! R52   R(42,43)                1.0937         estimate D2E/DX2                !
 ! R53   R(42,44)                1.0899         estimate D2E/DX2                !
 ! R54   R(42,45)                1.5194         estimate D2E/DX2                !
 ! R55   R(45,46)                1.0967         estimate D2E/DX2                !
 ! R56   R(45,47)                1.0956         estimate D2E/DX2                !
 ! R57   R(45,48)                1.5215         estimate D2E/DX2                !
 ! R58   R(48,49)                1.0962         estimate D2E/DX2                !
 ! R59   R(48,50)                1.0972         estimate D2E/DX2                !
 ! R60   R(48,51)                1.5203         estimate D2E/DX2                !
 ! R61   R(51,52)                1.0934         estimate D2E/DX2                !
 ! R62   R(51,53)                1.0937         estimate D2E/DX2                !
 ! R63   R(51,54)                1.0945         estimate D2E/DX2                !
 ! R64   R(55,56)                1.0846         estimate D2E/DX2                !
 ! R65   R(55,57)                1.3835         estimate D2E/DX2                !
 ! R66   R(55,63)                1.3979         estimate D2E/DX2                !
 ! R67   R(57,58)                1.0839         estimate D2E/DX2                !
 ! R68   R(57,59)                1.4086         estimate D2E/DX2                !
 ! R69   R(59,60)                1.4049         estimate D2E/DX2                !
 ! R70   R(59,72)                1.5248         estimate D2E/DX2                !
 ! R71   R(60,61)                1.0827         estimate D2E/DX2                !
 ! R72   R(60,62)                1.3806         estimate D2E/DX2                !
 ! R73   R(62,63)                1.418          estimate D2E/DX2                !
 ! R74   R(62,65)                1.4552         estimate D2E/DX2                !
 ! R75   R(64,65)                1.423          estimate D2E/DX2                !
 ! R76   R(64,71)                1.405          estimate D2E/DX2                !
 ! R77   R(65,66)                1.3745         estimate D2E/DX2                !
 ! R78   R(66,67)                1.0846         estimate D2E/DX2                !
 ! R79   R(66,68)                1.4116         estimate D2E/DX2                !
 ! R80   R(68,69)                1.3974         estimate D2E/DX2                !
 ! R81   R(68,85)                1.5229         estimate D2E/DX2                !
 ! R82   R(69,70)                1.0823         estimate D2E/DX2                !
 ! R83   R(69,71)                1.396          estimate D2E/DX2                !
 ! R84   R(71,98)                1.4773         estimate D2E/DX2                !
 ! R85   R(72,73)                1.5283         estimate D2E/DX2                !
 ! R86   R(72,77)                1.5347         estimate D2E/DX2                !
 ! R87   R(72,81)                1.5367         estimate D2E/DX2                !
 ! R88   R(73,74)                1.094          estimate D2E/DX2                !
 ! R89   R(73,75)                1.093          estimate D2E/DX2                !
 ! R90   R(73,76)                1.0941         estimate D2E/DX2                !
 ! R91   R(77,78)                1.0928         estimate D2E/DX2                !
 ! R92   R(77,79)                1.094          estimate D2E/DX2                !
 ! R93   R(77,80)                1.0928         estimate D2E/DX2                !
 ! R94   R(81,82)                1.0927         estimate D2E/DX2                !
 ! R95   R(81,83)                1.0941         estimate D2E/DX2                !
 ! R96   R(81,84)                1.0933         estimate D2E/DX2                !
 ! R97   R(85,86)                1.5278         estimate D2E/DX2                !
 ! R98   R(85,90)                1.5363         estimate D2E/DX2                !
 ! R99   R(85,94)                1.5358         estimate D2E/DX2                !
 ! R100  R(86,87)                1.0937         estimate D2E/DX2                !
 ! R101  R(86,88)                1.0931         estimate D2E/DX2                !
 ! R102  R(86,89)                1.0937         estimate D2E/DX2                !
 ! R103  R(90,91)                1.093          estimate D2E/DX2                !
 ! R104  R(90,92)                1.0941         estimate D2E/DX2                !
 ! R105  R(90,93)                1.0937         estimate D2E/DX2                !
 ! R106  R(94,95)                1.0936         estimate D2E/DX2                !
 ! R107  R(94,96)                1.0941         estimate D2E/DX2                !
 ! R108  R(94,97)                1.093          estimate D2E/DX2                !
 ! R109  R(98,99)                1.398          estimate D2E/DX2                !
 ! R110  R(98,106)               1.394          estimate D2E/DX2                !
 ! R111  R(99,100)               1.0858         estimate D2E/DX2                !
 ! R112  R(99,101)               1.3852         estimate D2E/DX2                !
 ! R113  R(101,102)              1.0836         estimate D2E/DX2                !
 ! R114  R(101,103)              1.3948         estimate D2E/DX2                !
 ! R115  R(103,104)              1.3934         estimate D2E/DX2                !
 ! R116  R(103,108)              1.4839         estimate D2E/DX2                !
 ! R117  R(104,105)              1.083          estimate D2E/DX2                !
 ! R118  R(104,106)              1.3878         estimate D2E/DX2                !
 ! R119  R(106,107)              1.0852         estimate D2E/DX2                !
 ! R120  R(109,111)              1.4327         estimate D2E/DX2                !
 ! R121  R(110,122)              1.479          estimate D2E/DX2                !
 ! R122  R(111,112)              1.4176         estimate D2E/DX2                !
 ! R123  R(111,120)              1.4165         estimate D2E/DX2                !
 ! R124  R(112,113)              1.0835         estimate D2E/DX2                !
 ! R125  R(112,114)              1.3827         estimate D2E/DX2                !
 ! R126  R(114,115)              1.0868         estimate D2E/DX2                !
 ! R127  R(114,116)              1.3977         estimate D2E/DX2                !
 ! R128  R(116,117)              1.0842         estimate D2E/DX2                !
 ! R129  R(116,118)              1.3987         estimate D2E/DX2                !
 ! R130  R(118,119)              1.0864         estimate D2E/DX2                !
 ! R131  R(118,120)              1.3814         estimate D2E/DX2                !
 ! R132  R(120,121)              1.0834         estimate D2E/DX2                !
 ! R133  R(122,123)              1.3975         estimate D2E/DX2                !
 ! R134  R(122,131)              1.398          estimate D2E/DX2                !
 ! R135  R(123,124)              1.0838         estimate D2E/DX2                !
 ! R136  R(123,125)              1.3866         estimate D2E/DX2                !
 ! R137  R(125,126)              1.0855         estimate D2E/DX2                !
 ! R138  R(125,127)              1.394          estimate D2E/DX2                !
 ! R139  R(127,128)              1.0853         estimate D2E/DX2                !
 ! R140  R(127,129)              1.3906         estimate D2E/DX2                !
 ! R141  R(129,130)              1.086          estimate D2E/DX2                !
 ! R142  R(129,131)              1.3896         estimate D2E/DX2                !
 ! R143  R(131,132)              1.0833         estimate D2E/DX2                !
 ! A1    A(6,1,27)             102.6009         estimate D2E/DX2                !
 ! A2    A(6,1,37)             102.0452         estimate D2E/DX2                !
 ! A3    A(27,1,29)             77.7112         estimate D2E/DX2                !
 ! A4    A(27,1,37)            155.3006         estimate D2E/DX2                !
 ! A5    A(29,1,37)             77.6815         estimate D2E/DX2                !
 ! A6    A(20,2,23)            124.7281         estimate D2E/DX2                !
 ! A7    A(20,2,27)            124.2833         estimate D2E/DX2                !
 ! A8    A(23,2,27)            110.9733         estimate D2E/DX2                !
 ! A9    A(25,3,27)            111.7            estimate D2E/DX2                !
 ! A10   A(25,3,28)            131.6202         estimate D2E/DX2                !
 ! A11   A(27,3,28)            116.5818         estimate D2E/DX2                !
 ! A12   A(30,4,37)            116.5073         estimate D2E/DX2                !
 ! A13   A(30,4,38)            131.769          estimate D2E/DX2                !
 ! A14   A(37,4,38)            111.5057         estimate D2E/DX2                !
 ! A15   A(37,5,40)            111.0496         estimate D2E/DX2                !
 ! A16   A(37,5,42)            124.2453         estimate D2E/DX2                !
 ! A17   A(40,5,42)            124.6585         estimate D2E/DX2                !
 ! A18   A(1,6,63)             122.7015         estimate D2E/DX2                !
 ! A19   A(1,6,64)             130.5952         estimate D2E/DX2                !
 ! A20   A(63,6,64)            106.6472         estimate D2E/DX2                !
 ! A21   A(108,7,110)          113.1107         estimate D2E/DX2                !
 ! A22   A(109,8,110)          116.4554         estimate D2E/DX2                !
 ! A23   A(108,9,109)          115.8318         estimate D2E/DX2                !
 ! A24   A(11,10,12)           107.8045         estimate D2E/DX2                !
 ! A25   A(11,10,13)           107.8079         estimate D2E/DX2                !
 ! A26   A(11,10,14)           110.5699         estimate D2E/DX2                !
 ! A27   A(12,10,13)           107.7948         estimate D2E/DX2                !
 ! A28   A(12,10,14)           111.4737         estimate D2E/DX2                !
 ! A29   A(13,10,14)           111.2326         estimate D2E/DX2                !
 ! A30   A(10,14,15)           109.9918         estimate D2E/DX2                !
 ! A31   A(10,14,16)           109.4386         estimate D2E/DX2                !
 ! A32   A(10,14,17)           112.294          estimate D2E/DX2                !
 ! A33   A(15,14,16)           106.2298         estimate D2E/DX2                !
 ! A34   A(15,14,17)           109.5789         estimate D2E/DX2                !
 ! A35   A(16,14,17)           109.1206         estimate D2E/DX2                !
 ! A36   A(14,17,18)           109.7748         estimate D2E/DX2                !
 ! A37   A(14,17,19)           110.2686         estimate D2E/DX2                !
 ! A38   A(14,17,20)           111.8516         estimate D2E/DX2                !
 ! A39   A(18,17,19)           106.8123         estimate D2E/DX2                !
 ! A40   A(18,17,20)           108.3914         estimate D2E/DX2                !
 ! A41   A(19,17,20)           109.5954         estimate D2E/DX2                !
 ! A42   A(2,20,17)            112.5872         estimate D2E/DX2                !
 ! A43   A(2,20,21)            107.6027         estimate D2E/DX2                !
 ! A44   A(2,20,22)            107.4526         estimate D2E/DX2                !
 ! A45   A(17,20,21)           110.3543         estimate D2E/DX2                !
 ! A46   A(17,20,22)           111.113          estimate D2E/DX2                !
 ! A47   A(21,20,22)           107.5177         estimate D2E/DX2                !
 ! A48   A(2,23,24)            122.0574         estimate D2E/DX2                !
 ! A49   A(2,23,25)            107.1725         estimate D2E/DX2                !
 ! A50   A(24,23,25)           130.7657         estimate D2E/DX2                !
 ! A51   A(3,25,23)            105.8312         estimate D2E/DX2                !
 ! A52   A(3,25,26)            123.0284         estimate D2E/DX2                !
 ! A53   A(23,25,26)           131.0741         estimate D2E/DX2                !
 ! A54   A(1,27,2)             141.0035         estimate D2E/DX2                !
 ! A55   A(1,27,3)             114.3382         estimate D2E/DX2                !
 ! A56   A(2,27,3)             104.3137         estimate D2E/DX2                !
 ! A57   A(3,28,29)            110.9425         estimate D2E/DX2                !
 ! A58   A(3,28,35)            127.3662         estimate D2E/DX2                !
 ! A59   A(29,28,35)           121.6714         estimate D2E/DX2                !
 ! A60   A(1,29,28)            120.3458         estimate D2E/DX2                !
 ! A61   A(1,29,30)            120.4689         estimate D2E/DX2                !
 ! A62   A(28,29,30)           119.0247         estimate D2E/DX2                !
 ! A63   A(4,30,29)            110.9378         estimate D2E/DX2                !
 ! A64   A(4,30,31)            127.3983         estimate D2E/DX2                !
 ! A65   A(29,30,31)           121.6186         estimate D2E/DX2                !
 ! A66   A(30,31,32)           122.0321         estimate D2E/DX2                !
 ! A67   A(30,31,33)           117.8298         estimate D2E/DX2                !
 ! A68   A(32,31,33)           120.0883         estimate D2E/DX2                !
 ! A69   A(31,33,34)           118.9953         estimate D2E/DX2                !
 ! A70   A(31,33,35)           122.0337         estimate D2E/DX2                !
 ! A71   A(34,33,35)           118.9075         estimate D2E/DX2                !
 ! A72   A(28,35,33)           117.7728         estimate D2E/DX2                !
 ! A73   A(28,35,36)           121.893          estimate D2E/DX2                !
 ! A74   A(33,35,36)           120.2672         estimate D2E/DX2                !
 ! A75   A(1,37,4)             114.3753         estimate D2E/DX2                !
 ! A76   A(1,37,5)             140.7444         estimate D2E/DX2                !
 ! A77   A(4,37,5)             104.3666         estimate D2E/DX2                !
 ! A78   A(4,38,39)            122.9949         estimate D2E/DX2                !
 ! A79   A(4,38,40)            106.0604         estimate D2E/DX2                !
 ! A80   A(39,38,40)           130.9336         estimate D2E/DX2                !
 ! A81   A(5,40,38)            107.0147         estimate D2E/DX2                !
 ! A82   A(5,40,41)            122.2198         estimate D2E/DX2                !
 ! A83   A(38,40,41)           130.764          estimate D2E/DX2                !
 ! A84   A(5,42,43)            108.1132         estimate D2E/DX2                !
 ! A85   A(5,42,44)            106.6366         estimate D2E/DX2                !
 ! A86   A(5,42,45)            112.3839         estimate D2E/DX2                !
 ! A87   A(43,42,44)           107.7995         estimate D2E/DX2                !
 ! A88   A(43,42,45)           110.9969         estimate D2E/DX2                !
 ! A89   A(44,42,45)           110.6971         estimate D2E/DX2                !
 ! A90   A(42,45,46)           109.5248         estimate D2E/DX2                !
 ! A91   A(42,45,47)           108.6426         estimate D2E/DX2                !
 ! A92   A(42,45,48)           112.0033         estimate D2E/DX2                !
 ! A93   A(46,45,47)           106.8074         estimate D2E/DX2                !
 ! A94   A(46,45,48)           110.0555         estimate D2E/DX2                !
 ! A95   A(47,45,48)           109.6598         estimate D2E/DX2                !
 ! A96   A(45,48,49)           108.9912         estimate D2E/DX2                !
 ! A97   A(45,48,50)           109.5661         estimate D2E/DX2                !
 ! A98   A(45,48,51)           112.2629         estimate D2E/DX2                !
 ! A99   A(49,48,50)           106.4649         estimate D2E/DX2                !
 ! A100  A(49,48,51)           109.6137         estimate D2E/DX2                !
 ! A101  A(50,48,51)           109.7704         estimate D2E/DX2                !
 ! A102  A(48,51,52)           111.4204         estimate D2E/DX2                !
 ! A103  A(48,51,53)           110.7352         estimate D2E/DX2                !
 ! A104  A(48,51,54)           111.1975         estimate D2E/DX2                !
 ! A105  A(52,51,53)           107.7668         estimate D2E/DX2                !
 ! A106  A(52,51,54)           107.7552         estimate D2E/DX2                !
 ! A107  A(53,51,54)           107.8046         estimate D2E/DX2                !
 ! A108  A(56,55,57)           121.7926         estimate D2E/DX2                !
 ! A109  A(56,55,63)           120.1621         estimate D2E/DX2                !
 ! A110  A(57,55,63)           118.0425         estimate D2E/DX2                !
 ! A111  A(55,57,58)           118.3632         estimate D2E/DX2                !
 ! A112  A(55,57,59)           122.5273         estimate D2E/DX2                !
 ! A113  A(58,57,59)           119.1022         estimate D2E/DX2                !
 ! A114  A(57,59,60)           118.6991         estimate D2E/DX2                !
 ! A115  A(57,59,72)           119.2924         estimate D2E/DX2                !
 ! A116  A(60,59,72)           121.9812         estimate D2E/DX2                !
 ! A117  A(59,60,61)           120.3274         estimate D2E/DX2                !
 ! A118  A(59,60,62)           119.7362         estimate D2E/DX2                !
 ! A119  A(61,60,62)           119.9309         estimate D2E/DX2                !
 ! A120  A(60,62,63)           120.5631         estimate D2E/DX2                !
 ! A121  A(60,62,65)           134.298          estimate D2E/DX2                !
 ! A122  A(63,62,65)           105.1127         estimate D2E/DX2                !
 ! A123  A(6,63,55)            127.819          estimate D2E/DX2                !
 ! A124  A(6,63,62)            111.7539         estimate D2E/DX2                !
 ! A125  A(55,63,62)           120.422          estimate D2E/DX2                !
 ! A126  A(6,64,65)            111.0994         estimate D2E/DX2                !
 ! A127  A(6,64,71)            128.295          estimate D2E/DX2                !
 ! A128  A(65,64,71)           120.5316         estimate D2E/DX2                !
 ! A129  A(62,65,64)           105.3786         estimate D2E/DX2                !
 ! A130  A(62,65,66)           133.7845         estimate D2E/DX2                !
 ! A131  A(64,65,66)           120.7668         estimate D2E/DX2                !
 ! A132  A(65,66,67)           120.1273         estimate D2E/DX2                !
 ! A133  A(65,66,68)           119.7033         estimate D2E/DX2                !
 ! A134  A(67,66,68)           120.1624         estimate D2E/DX2                !
 ! A135  A(66,68,69)           118.7124         estimate D2E/DX2                !
 ! A136  A(66,68,85)           118.9725         estimate D2E/DX2                !
 ! A137  A(69,68,85)           122.3147         estimate D2E/DX2                !
 ! A138  A(68,69,70)           119.7779         estimate D2E/DX2                !
 ! A139  A(68,69,71)           123.1645         estimate D2E/DX2                !
 ! A140  A(70,69,71)           117.0549         estimate D2E/DX2                !
 ! A141  A(64,71,69)           117.1095         estimate D2E/DX2                !
 ! A142  A(64,71,98)           120.6866         estimate D2E/DX2                !
 ! A143  A(69,71,98)           122.1754         estimate D2E/DX2                !
 ! A144  A(59,72,73)           112.3119         estimate D2E/DX2                !
 ! A145  A(59,72,77)           109.7784         estimate D2E/DX2                !
 ! A146  A(59,72,81)           108.7905         estimate D2E/DX2                !
 ! A147  A(73,72,77)           108.2637         estimate D2E/DX2                !
 ! A148  A(73,72,81)           108.3096         estimate D2E/DX2                !
 ! A149  A(77,72,81)           109.3397         estimate D2E/DX2                !
 ! A150  A(72,73,74)           111.8253         estimate D2E/DX2                !
 ! A151  A(72,73,75)           109.3127         estimate D2E/DX2                !
 ! A152  A(72,73,76)           111.8052         estimate D2E/DX2                !
 ! A153  A(74,73,75)           107.5251         estimate D2E/DX2                !
 ! A154  A(74,73,76)           108.6013         estimate D2E/DX2                !
 ! A155  A(75,73,76)           107.5924         estimate D2E/DX2                !
 ! A156  A(72,77,78)           110.8924         estimate D2E/DX2                !
 ! A157  A(72,77,79)           109.7445         estimate D2E/DX2                !
 ! A158  A(72,77,80)           111.9889         estimate D2E/DX2                !
 ! A159  A(78,77,79)           108.2293         estimate D2E/DX2                !
 ! A160  A(78,77,80)           108.0903         estimate D2E/DX2                !
 ! A161  A(79,77,80)           107.7675         estimate D2E/DX2                !
 ! A162  A(72,81,82)           111.8129         estimate D2E/DX2                !
 ! A163  A(72,81,83)           109.7943         estimate D2E/DX2                !
 ! A164  A(72,81,84)           110.9398         estimate D2E/DX2                !
 ! A165  A(82,81,83)           107.8996         estimate D2E/DX2                !
 ! A166  A(82,81,84)           108.0265         estimate D2E/DX2                !
 ! A167  A(83,81,84)           108.2461         estimate D2E/DX2                !
 ! A168  A(68,85,86)           112.4548         estimate D2E/DX2                !
 ! A169  A(68,85,90)           108.8738         estimate D2E/DX2                !
 ! A170  A(68,85,94)           109.0931         estimate D2E/DX2                !
 ! A171  A(86,85,90)           108.4143         estimate D2E/DX2                !
 ! A172  A(86,85,94)           108.451          estimate D2E/DX2                !
 ! A173  A(90,85,94)           109.5193         estimate D2E/DX2                !
 ! A174  A(85,86,87)           111.8133         estimate D2E/DX2                !
 ! A175  A(85,86,88)           109.3095         estimate D2E/DX2                !
 ! A176  A(85,86,89)           111.8149         estimate D2E/DX2                !
 ! A177  A(87,86,88)           107.6244         estimate D2E/DX2                !
 ! A178  A(87,86,89)           108.4587         estimate D2E/DX2                !
 ! A179  A(88,86,89)           107.6475         estimate D2E/DX2                !
 ! A180  A(85,90,91)           111.9467         estimate D2E/DX2                !
 ! A181  A(85,90,92)           109.8713         estimate D2E/DX2                !
 ! A182  A(85,90,93)           110.791          estimate D2E/DX2                !
 ! A183  A(91,90,92)           107.8072         estimate D2E/DX2                !
 ! A184  A(91,90,93)           108.0587         estimate D2E/DX2                !
 ! A185  A(92,90,93)           108.241          estimate D2E/DX2                !
 ! A186  A(85,94,95)           110.8056         estimate D2E/DX2                !
 ! A187  A(85,94,96)           109.8467         estimate D2E/DX2                !
 ! A188  A(85,94,97)           111.9556         estimate D2E/DX2                !
 ! A189  A(95,94,96)           108.2438         estimate D2E/DX2                !
 ! A190  A(95,94,97)           108.0784         estimate D2E/DX2                !
 ! A191  A(96,94,97)           107.7852         estimate D2E/DX2                !
 ! A192  A(71,98,99)           120.5609         estimate D2E/DX2                !
 ! A193  A(71,98,106)          120.2413         estimate D2E/DX2                !
 ! A194  A(99,98,106)          118.9884         estimate D2E/DX2                !
 ! A195  A(98,99,100)          119.5138         estimate D2E/DX2                !
 ! A196  A(98,99,101)          120.2503         estimate D2E/DX2                !
 ! A197  A(100,99,101)         120.1017         estimate D2E/DX2                !
 ! A198  A(99,101,102)         121.0612         estimate D2E/DX2                !
 ! A199  A(99,101,103)         120.487          estimate D2E/DX2                !
 ! A200  A(102,101,103)        118.3526         estimate D2E/DX2                !
 ! A201  A(101,103,104)        119.025          estimate D2E/DX2                !
 ! A202  A(101,103,108)        121.1248         estimate D2E/DX2                !
 ! A203  A(104,103,108)        119.5372         estimate D2E/DX2                !
 ! A204  A(103,104,105)        118.1756         estimate D2E/DX2                !
 ! A205  A(103,104,106)        120.3156         estimate D2E/DX2                !
 ! A206  A(105,104,106)        121.3071         estimate D2E/DX2                !
 ! A207  A(98,106,104)         120.4219         estimate D2E/DX2                !
 ! A208  A(98,106,107)         119.479          estimate D2E/DX2                !
 ! A209  A(104,106,107)        120.0762         estimate D2E/DX2                !
 ! A210  A(7,108,9)            126.7486         estimate D2E/DX2                !
 ! A211  A(7,108,103)          116.2702         estimate D2E/DX2                !
 ! A212  A(9,108,103)          116.7325         estimate D2E/DX2                !
 ! A213  A(8,109,9)            121.8998         estimate D2E/DX2                !
 ! A214  A(8,109,111)          119.315          estimate D2E/DX2                !
 ! A215  A(9,109,111)          118.6094         estimate D2E/DX2                !
 ! A216  A(7,110,8)            125.906          estimate D2E/DX2                !
 ! A217  A(7,110,122)          116.2633         estimate D2E/DX2                !
 ! A218  A(8,110,122)          117.7551         estimate D2E/DX2                !
 ! A219  A(109,111,112)        121.2336         estimate D2E/DX2                !
 ! A220  A(109,111,120)        121.5039         estimate D2E/DX2                !
 ! A221  A(112,111,120)        117.2415         estimate D2E/DX2                !
 ! A222  A(111,112,113)        118.0959         estimate D2E/DX2                !
 ! A223  A(111,112,114)        121.0369         estimate D2E/DX2                !
 ! A224  A(113,112,114)        120.8663         estimate D2E/DX2                !
 ! A225  A(112,114,115)        119.2945         estimate D2E/DX2                !
 ! A226  A(112,114,116)        121.0494         estimate D2E/DX2                !
 ! A227  A(115,114,116)        119.655          estimate D2E/DX2                !
 ! A228  A(114,116,117)        120.7563         estimate D2E/DX2                !
 ! A229  A(114,116,118)        118.5184         estimate D2E/DX2                !
 ! A230  A(117,116,118)        120.7245         estimate D2E/DX2                !
 ! A231  A(116,118,119)        119.6388         estimate D2E/DX2                !
 ! A232  A(116,118,120)        121.0999         estimate D2E/DX2                !
 ! A233  A(119,118,120)        119.2614         estimate D2E/DX2                !
 ! A234  A(111,120,118)        121.0522         estimate D2E/DX2                !
 ! A235  A(111,120,121)        118.1474         estimate D2E/DX2                !
 ! A236  A(118,120,121)        120.8003         estimate D2E/DX2                !
 ! A237  A(110,122,123)        120.9821         estimate D2E/DX2                !
 ! A238  A(110,122,131)        120.1397         estimate D2E/DX2                !
 ! A239  A(123,122,131)        118.8476         estimate D2E/DX2                !
 ! A240  A(122,123,124)        118.1088         estimate D2E/DX2                !
 ! A241  A(122,123,125)        120.5798         estimate D2E/DX2                !
 ! A242  A(124,123,125)        121.3108         estimate D2E/DX2                !
 ! A243  A(123,125,126)        119.7862         estimate D2E/DX2                !
 ! A244  A(123,125,127)        120.287          estimate D2E/DX2                !
 ! A245  A(126,125,127)        119.9268         estimate D2E/DX2                !
 ! A246  A(125,127,128)        120.208          estimate D2E/DX2                !
 ! A247  A(125,127,129)        119.4892         estimate D2E/DX2                !
 ! A248  A(128,127,129)        120.302          estimate D2E/DX2                !
 ! A249  A(127,129,130)        119.9305         estimate D2E/DX2                !
 ! A250  A(127,129,131)        120.2818         estimate D2E/DX2                !
 ! A251  A(130,129,131)        119.787          estimate D2E/DX2                !
 ! A252  A(122,131,129)        120.5129         estimate D2E/DX2                !
 ! A253  A(122,131,132)        117.9943         estimate D2E/DX2                !
 ! A254  A(129,131,132)        121.4927         estimate D2E/DX2                !
 ! A255  L(6,1,29,27,-1)       180.3121         estimate D2E/DX2                !
 ! A256  L(6,1,29,27,-2)       178.8015         estimate D2E/DX2                !
 ! D1    D(27,1,6,63)         -100.7245         estimate D2E/DX2                !
 ! D2    D(27,1,6,64)           76.1713         estimate D2E/DX2                !
 ! D3    D(37,1,6,63)           80.9105         estimate D2E/DX2                !
 ! D4    D(37,1,6,64)         -102.1938         estimate D2E/DX2                !
 ! D5    D(6,1,27,2)            -6.8444         estimate D2E/DX2                !
 ! D6    D(6,1,27,3)          -178.6708         estimate D2E/DX2                !
 ! D7    D(29,1,27,2)          174.3541         estimate D2E/DX2                !
 ! D8    D(29,1,27,3)            2.5277         estimate D2E/DX2                !
 ! D9    D(37,1,27,2)          169.3267         estimate D2E/DX2                !
 ! D10   D(37,1,27,3)           -2.4997         estimate D2E/DX2                !
 ! D11   D(27,1,29,28)          -1.7237         estimate D2E/DX2                !
 ! D12   D(27,1,29,30)        -177.074          estimate D2E/DX2                !
 ! D13   D(37,1,29,28)         176.1283         estimate D2E/DX2                !
 ! D14   D(37,1,29,30)           0.778          estimate D2E/DX2                !
 ! D15   D(6,1,37,4)           179.7622         estimate D2E/DX2                !
 ! D16   D(6,1,37,5)             9.7153         estimate D2E/DX2                !
 ! D17   D(27,1,37,4)            3.583          estimate D2E/DX2                !
 ! D18   D(27,1,37,5)         -166.4639         estimate D2E/DX2                !
 ! D19   D(29,1,37,4)           -1.445          estimate D2E/DX2                !
 ! D20   D(29,1,37,5)         -171.4919         estimate D2E/DX2                !
 ! D21   D(23,2,20,17)        -101.0049         estimate D2E/DX2                !
 ! D22   D(23,2,20,21)         137.178          estimate D2E/DX2                !
 ! D23   D(23,2,20,22)          21.6614         estimate D2E/DX2                !
 ! D24   D(27,2,20,17)          77.4426         estimate D2E/DX2                !
 ! D25   D(27,2,20,21)         -44.3746         estimate D2E/DX2                !
 ! D26   D(27,2,20,22)        -159.8911         estimate D2E/DX2                !
 ! D27   D(20,2,23,24)          -1.9977         estimate D2E/DX2                !
 ! D28   D(20,2,23,25)         178.6951         estimate D2E/DX2                !
 ! D29   D(27,2,23,24)         179.3761         estimate D2E/DX2                !
 ! D30   D(27,2,23,25)           0.0689         estimate D2E/DX2                !
 ! D31   D(20,2,27,1)            9.568          estimate D2E/DX2                !
 ! D32   D(20,2,27,3)         -178.1148         estimate D2E/DX2                !
 ! D33   D(23,2,27,1)         -171.7985         estimate D2E/DX2                !
 ! D34   D(23,2,27,3)            0.5187         estimate D2E/DX2                !
 ! D35   D(27,3,25,23)           0.9942         estimate D2E/DX2                !
 ! D36   D(27,3,25,26)        -176.3399         estimate D2E/DX2                !
 ! D37   D(28,3,25,23)         177.1921         estimate D2E/DX2                !
 ! D38   D(28,3,25,26)          -0.142          estimate D2E/DX2                !
 ! D39   D(25,3,27,1)          173.7663         estimate D2E/DX2                !
 ! D40   D(25,3,27,2)           -0.9359         estimate D2E/DX2                !
 ! D41   D(28,3,27,1)           -3.0561         estimate D2E/DX2                !
 ! D42   D(28,3,27,2)         -177.7583         estimate D2E/DX2                !
 ! D43   D(25,3,28,29)        -174.3873         estimate D2E/DX2                !
 ! D44   D(25,3,28,35)           3.9936         estimate D2E/DX2                !
 ! D45   D(27,3,28,29)           1.6623         estimate D2E/DX2                !
 ! D46   D(27,3,28,35)        -179.9568         estimate D2E/DX2                !
 ! D47   D(37,4,30,29)          -1.2945         estimate D2E/DX2                !
 ! D48   D(37,4,30,31)        -178.8504         estimate D2E/DX2                !
 ! D49   D(38,4,30,29)         172.8036         estimate D2E/DX2                !
 ! D50   D(38,4,30,31)          -4.7523         estimate D2E/DX2                !
 ! D51   D(30,4,37,1)            1.9398         estimate D2E/DX2                !
 ! D52   D(30,4,37,5)          175.4572         estimate D2E/DX2                !
 ! D53   D(38,4,37,1)         -173.332          estimate D2E/DX2                !
 ! D54   D(38,4,37,5)            0.1855         estimate D2E/DX2                !
 ! D55   D(30,4,38,39)           4.1012         estimate D2E/DX2                !
 ! D56   D(30,4,38,40)        -174.8049         estimate D2E/DX2                !
 ! D57   D(37,4,38,39)         178.4252         estimate D2E/DX2                !
 ! D58   D(37,4,38,40)          -0.4809         estimate D2E/DX2                !
 ! D59   D(40,5,37,1)          170.8297         estimate D2E/DX2                !
 ! D60   D(40,5,37,4)            0.1827         estimate D2E/DX2                !
 ! D61   D(42,5,37,1)          -11.5571         estimate D2E/DX2                !
 ! D62   D(42,5,37,4)          177.7959         estimate D2E/DX2                !
 ! D63   D(37,5,40,38)          -0.4828         estimate D2E/DX2                !
 ! D64   D(37,5,40,41)         179.9286         estimate D2E/DX2                !
 ! D65   D(42,5,40,38)        -178.0842         estimate D2E/DX2                !
 ! D66   D(42,5,40,41)           2.3272         estimate D2E/DX2                !
 ! D67   D(37,5,42,43)         138.8871         estimate D2E/DX2                !
 ! D68   D(37,5,42,44)          23.2024         estimate D2E/DX2                !
 ! D69   D(37,5,42,45)         -98.2633         estimate D2E/DX2                !
 ! D70   D(40,5,42,43)         -43.8212         estimate D2E/DX2                !
 ! D71   D(40,5,42,44)        -159.5059         estimate D2E/DX2                !
 ! D72   D(40,5,42,45)          79.0284         estimate D2E/DX2                !
 ! D73   D(1,6,63,55)           -2.0738         estimate D2E/DX2                !
 ! D74   D(1,6,63,62)          177.0973         estimate D2E/DX2                !
 ! D75   D(64,6,63,55)        -179.614          estimate D2E/DX2                !
 ! D76   D(64,6,63,62)          -0.4429         estimate D2E/DX2                !
 ! D77   D(1,6,64,65)         -176.4099         estimate D2E/DX2                !
 ! D78   D(1,6,64,71)            0.4309         estimate D2E/DX2                !
 ! D79   D(63,6,64,65)           0.8639         estimate D2E/DX2                !
 ! D80   D(63,6,64,71)         177.7047         estimate D2E/DX2                !
 ! D81   D(110,7,108,9)          2.4635         estimate D2E/DX2                !
 ! D82   D(110,7,108,103)     -171.5865         estimate D2E/DX2                !
 ! D83   D(108,7,110,8)         -1.4976         estimate D2E/DX2                !
 ! D84   D(108,7,110,122)      175.2539         estimate D2E/DX2                !
 ! D85   D(110,8,109,9)         -0.6811         estimate D2E/DX2                !
 ! D86   D(110,8,109,111)      174.4321         estimate D2E/DX2                !
 ! D87   D(109,8,110,7)          0.7376         estimate D2E/DX2                !
 ! D88   D(109,8,110,122)     -175.9704         estimate D2E/DX2                !
 ! D89   D(109,9,108,7)         -2.4989         estimate D2E/DX2                !
 ! D90   D(109,9,108,103)      171.5269         estimate D2E/DX2                !
 ! D91   D(108,9,109,8)          1.4762         estimate D2E/DX2                !
 ! D92   D(108,9,109,111)     -173.6703         estimate D2E/DX2                !
 ! D93   D(11,10,14,15)        178.4835         estimate D2E/DX2                !
 ! D94   D(11,10,14,16)         62.1381         estimate D2E/DX2                !
 ! D95   D(11,10,14,17)        -59.202          estimate D2E/DX2                !
 ! D96   D(12,10,14,15)         58.5775         estimate D2E/DX2                !
 ! D97   D(12,10,14,16)        -57.7679         estimate D2E/DX2                !
 ! D98   D(12,10,14,17)       -179.108          estimate D2E/DX2                !
 ! D99   D(13,10,14,15)        -61.7645         estimate D2E/DX2                !
 ! D100  D(13,10,14,16)       -178.1099         estimate D2E/DX2                !
 ! D101  D(13,10,14,17)         60.55           estimate D2E/DX2                !
 ! D102  D(10,14,17,18)         54.7128         estimate D2E/DX2                !
 ! D103  D(10,14,17,19)        -62.7015         estimate D2E/DX2                !
 ! D104  D(10,14,17,20)        175.0712         estimate D2E/DX2                !
 ! D105  D(15,14,17,18)        177.261          estimate D2E/DX2                !
 ! D106  D(15,14,17,19)         59.8467         estimate D2E/DX2                !
 ! D107  D(15,14,17,20)        -62.3805         estimate D2E/DX2                !
 ! D108  D(16,14,17,18)        -66.8093         estimate D2E/DX2                !
 ! D109  D(16,14,17,19)        175.7764         estimate D2E/DX2                !
 ! D110  D(16,14,17,20)         53.5491         estimate D2E/DX2                !
 ! D111  D(14,17,20,2)        -176.8904         estimate D2E/DX2                !
 ! D112  D(14,17,20,21)        -56.6465         estimate D2E/DX2                !
 ! D113  D(14,17,20,22)         62.5233         estimate D2E/DX2                !
 ! D114  D(18,17,20,2)         -55.7278         estimate D2E/DX2                !
 ! D115  D(18,17,20,21)         64.5161         estimate D2E/DX2                !
 ! D116  D(18,17,20,22)       -176.3141         estimate D2E/DX2                !
 ! D117  D(19,17,20,2)          60.4979         estimate D2E/DX2                !
 ! D118  D(19,17,20,21)       -179.2582         estimate D2E/DX2                !
 ! D119  D(19,17,20,22)        -60.0884         estimate D2E/DX2                !
 ! D120  D(2,23,25,3)           -0.6258         estimate D2E/DX2                !
 ! D121  D(2,23,25,26)         176.4091         estimate D2E/DX2                !
 ! D122  D(24,23,25,3)        -179.8506         estimate D2E/DX2                !
 ! D123  D(24,23,25,26)         -2.8157         estimate D2E/DX2                !
 ! D124  D(3,28,29,1)            0.6169         estimate D2E/DX2                !
 ! D125  D(3,28,29,30)         176.0338         estimate D2E/DX2                !
 ! D126  D(35,28,29,1)        -177.8712         estimate D2E/DX2                !
 ! D127  D(35,28,29,30)         -2.4542         estimate D2E/DX2                !
 ! D128  D(3,28,35,33)        -177.3141         estimate D2E/DX2                !
 ! D129  D(3,28,35,36)          -0.2829         estimate D2E/DX2                !
 ! D130  D(29,28,35,33)          0.9091         estimate D2E/DX2                !
 ! D131  D(29,28,35,36)        177.9403         estimate D2E/DX2                !
 ! D132  D(1,29,30,4)            0.0067         estimate D2E/DX2                !
 ! D133  D(1,29,30,31)         177.7266         estimate D2E/DX2                !
 ! D134  D(28,29,30,4)        -175.4045         estimate D2E/DX2                !
 ! D135  D(28,29,30,31)          2.3154         estimate D2E/DX2                !
 ! D136  D(4,30,31,32)          -0.7578         estimate D2E/DX2                !
 ! D137  D(4,30,31,33)         176.6764         estimate D2E/DX2                !
 ! D138  D(29,30,31,32)       -178.077          estimate D2E/DX2                !
 ! D139  D(29,30,31,33)         -0.6427         estimate D2E/DX2                !
 ! D140  D(30,31,33,34)       -178.0279         estimate D2E/DX2                !
 ! D141  D(30,31,33,35)         -0.9604         estimate D2E/DX2                !
 ! D142  D(32,31,33,34)         -0.5417         estimate D2E/DX2                !
 ! D143  D(32,31,33,35)        176.5258         estimate D2E/DX2                !
 ! D144  D(31,33,35,28)          0.8308         estimate D2E/DX2                !
 ! D145  D(31,33,35,36)       -176.2509         estimate D2E/DX2                !
 ! D146  D(34,33,35,28)        177.9007         estimate D2E/DX2                !
 ! D147  D(34,33,35,36)          0.8191         estimate D2E/DX2                !
 ! D148  D(4,38,40,5)            0.5652         estimate D2E/DX2                !
 ! D149  D(4,38,40,41)        -179.8944         estimate D2E/DX2                !
 ! D150  D(39,38,40,5)        -178.2203         estimate D2E/DX2                !
 ! D151  D(39,38,40,41)          1.3201         estimate D2E/DX2                !
 ! D152  D(5,42,45,46)         -63.398          estimate D2E/DX2                !
 ! D153  D(5,42,45,47)          52.9242         estimate D2E/DX2                !
 ! D154  D(5,42,45,48)         174.2085         estimate D2E/DX2                !
 ! D155  D(43,42,45,46)         57.8141         estimate D2E/DX2                !
 ! D156  D(43,42,45,47)        174.1363         estimate D2E/DX2                !
 ! D157  D(43,42,45,48)        -64.5794         estimate D2E/DX2                !
 ! D158  D(44,42,45,46)        177.4854         estimate D2E/DX2                !
 ! D159  D(44,42,45,47)        -66.1925         estimate D2E/DX2                !
 ! D160  D(44,42,45,48)         55.0919         estimate D2E/DX2                !
 ! D161  D(42,45,48,49)        -61.4038         estimate D2E/DX2                !
 ! D162  D(42,45,48,50)         54.7276         estimate D2E/DX2                !
 ! D163  D(42,45,48,51)        176.9627         estimate D2E/DX2                !
 ! D164  D(46,45,48,49)        176.5054         estimate D2E/DX2                !
 ! D165  D(46,45,48,50)        -67.3631         estimate D2E/DX2                !
 ! D166  D(46,45,48,51)         54.872          estimate D2E/DX2                !
 ! D167  D(47,45,48,49)         59.2924         estimate D2E/DX2                !
 ! D168  D(47,45,48,50)        175.4238         estimate D2E/DX2                !
 ! D169  D(47,45,48,51)        -62.3411         estimate D2E/DX2                !
 ! D170  D(45,48,51,52)        178.3143         estimate D2E/DX2                !
 ! D171  D(45,48,51,53)         58.3802         estimate D2E/DX2                !
 ! D172  D(45,48,51,54)        -61.4541         estimate D2E/DX2                !
 ! D173  D(49,48,51,52)         57.0372         estimate D2E/DX2                !
 ! D174  D(49,48,51,53)        -62.8968         estimate D2E/DX2                !
 ! D175  D(49,48,51,54)        177.2688         estimate D2E/DX2                !
 ! D176  D(50,48,51,52)        -59.5667         estimate D2E/DX2                !
 ! D177  D(50,48,51,53)       -179.5007         estimate D2E/DX2                !
 ! D178  D(50,48,51,54)         60.6649         estimate D2E/DX2                !
 ! D179  D(56,55,57,58)         -0.0733         estimate D2E/DX2                !
 ! D180  D(56,55,57,59)        178.9318         estimate D2E/DX2                !
 ! D181  D(63,55,57,58)       -179.4595         estimate D2E/DX2                !
 ! D182  D(63,55,57,59)         -0.4544         estimate D2E/DX2                !
 ! D183  D(56,55,63,6)          -0.7339         estimate D2E/DX2                !
 ! D184  D(56,55,63,62)       -179.8411         estimate D2E/DX2                !
 ! D185  D(57,55,63,6)         178.6627         estimate D2E/DX2                !
 ! D186  D(57,55,63,62)         -0.4445         estimate D2E/DX2                !
 ! D187  D(55,57,59,60)          1.0738         estimate D2E/DX2                !
 ! D188  D(55,57,59,72)       -177.0636         estimate D2E/DX2                !
 ! D189  D(58,57,59,60)       -179.9282         estimate D2E/DX2                !
 ! D190  D(58,57,59,72)          1.9345         estimate D2E/DX2                !
 ! D191  D(57,59,60,61)       -179.921          estimate D2E/DX2                !
 ! D192  D(57,59,60,62)         -0.7783         estimate D2E/DX2                !
 ! D193  D(72,59,60,61)         -1.8362         estimate D2E/DX2                !
 ! D194  D(72,59,60,62)        177.3065         estimate D2E/DX2                !
 ! D195  D(57,59,72,73)       -179.792          estimate D2E/DX2                !
 ! D196  D(57,59,72,77)        -59.2907         estimate D2E/DX2                !
 ! D197  D(57,59,72,81)         60.3192         estimate D2E/DX2                !
 ! D198  D(60,59,72,73)          2.1342         estimate D2E/DX2                !
 ! D199  D(60,59,72,77)        122.6355         estimate D2E/DX2                !
 ! D200  D(60,59,72,81)       -117.7546         estimate D2E/DX2                !
 ! D201  D(59,60,62,63)         -0.0881         estimate D2E/DX2                !
 ! D202  D(59,60,62,65)       -177.9223         estimate D2E/DX2                !
 ! D203  D(61,60,62,63)        179.058          estimate D2E/DX2                !
 ! D204  D(61,60,62,65)          1.2239         estimate D2E/DX2                !
 ! D205  D(60,62,63,6)        -178.5204         estimate D2E/DX2                !
 ! D206  D(60,62,63,55)          0.7203         estimate D2E/DX2                !
 ! D207  D(65,62,63,6)          -0.1259         estimate D2E/DX2                !
 ! D208  D(65,62,63,55)        179.1148         estimate D2E/DX2                !
 ! D209  D(60,62,65,64)        178.6892         estimate D2E/DX2                !
 ! D210  D(60,62,65,66)          1.8402         estimate D2E/DX2                !
 ! D211  D(63,62,65,64)          0.6209         estimate D2E/DX2                !
 ! D212  D(63,62,65,66)       -176.2281         estimate D2E/DX2                !
 ! D213  D(6,64,65,62)          -0.9344         estimate D2E/DX2                !
 ! D214  D(6,64,65,66)         176.4186         estimate D2E/DX2                !
 ! D215  D(71,64,65,62)       -178.0561         estimate D2E/DX2                !
 ! D216  D(71,64,65,66)         -0.7032         estimate D2E/DX2                !
 ! D217  D(6,64,71,69)        -175.3063         estimate D2E/DX2                !
 ! D218  D(6,64,71,98)           2.7905         estimate D2E/DX2                !
 ! D219  D(65,64,71,69)          1.2716         estimate D2E/DX2                !
 ! D220  D(65,64,71,98)        179.3684         estimate D2E/DX2                !
 ! D221  D(62,65,66,67)         -2.7984         estimate D2E/DX2                !
 ! D222  D(62,65,66,68)        176.2405         estimate D2E/DX2                !
 ! D223  D(64,65,66,67)       -179.2621         estimate D2E/DX2                !
 ! D224  D(64,65,66,68)         -0.2233         estimate D2E/DX2                !
 ! D225  D(65,66,68,69)          0.522          estimate D2E/DX2                !
 ! D226  D(65,66,68,85)       -179.2578         estimate D2E/DX2                !
 ! D227  D(67,66,68,69)        179.5605         estimate D2E/DX2                !
 ! D228  D(67,66,68,85)         -0.2193         estimate D2E/DX2                !
 ! D229  D(66,68,69,70)        179.4916         estimate D2E/DX2                !
 ! D230  D(66,68,69,71)          0.0999         estimate D2E/DX2                !
 ! D231  D(85,68,69,70)         -0.7364         estimate D2E/DX2                !
 ! D232  D(85,68,69,71)        179.8719         estimate D2E/DX2                !
 ! D233  D(66,68,85,86)       -179.9149         estimate D2E/DX2                !
 ! D234  D(66,68,85,90)         59.9188         estimate D2E/DX2                !
 ! D235  D(66,68,85,94)        -59.5535         estimate D2E/DX2                !
 ! D236  D(69,68,85,86)          0.3137         estimate D2E/DX2                !
 ! D237  D(69,68,85,90)       -119.8526         estimate D2E/DX2                !
 ! D238  D(69,68,85,94)        120.6751         estimate D2E/DX2                !
 ! D239  D(68,69,71,64)         -0.9876         estimate D2E/DX2                !
 ! D240  D(68,69,71,98)       -179.054          estimate D2E/DX2                !
 ! D241  D(70,69,71,64)        179.6052         estimate D2E/DX2                !
 ! D242  D(70,69,71,98)          1.5389         estimate D2E/DX2                !
 ! D243  D(64,71,98,99)       -108.1647         estimate D2E/DX2                !
 ! D244  D(64,71,98,106)        66.5239         estimate D2E/DX2                !
 ! D245  D(69,71,98,99)         69.8338         estimate D2E/DX2                !
 ! D246  D(69,71,98,106)      -115.4776         estimate D2E/DX2                !
 ! D247  D(59,72,73,74)        -61.3064         estimate D2E/DX2                !
 ! D248  D(59,72,73,75)        179.7425         estimate D2E/DX2                !
 ! D249  D(59,72,73,76)         60.7202         estimate D2E/DX2                !
 ! D250  D(77,72,73,74)        177.3211         estimate D2E/DX2                !
 ! D251  D(77,72,73,75)         58.3699         estimate D2E/DX2                !
 ! D252  D(77,72,73,76)        -60.6523         estimate D2E/DX2                !
 ! D253  D(81,72,73,74)         58.8616         estimate D2E/DX2                !
 ! D254  D(81,72,73,75)        -60.0895         estimate D2E/DX2                !
 ! D255  D(81,72,73,76)       -179.1118         estimate D2E/DX2                !
 ! D256  D(59,72,77,78)        -62.3262         estimate D2E/DX2                !
 ! D257  D(59,72,77,79)        178.1519         estimate D2E/DX2                !
 ! D258  D(59,72,77,80)         58.5094         estimate D2E/DX2                !
 ! D259  D(73,72,77,78)         60.5975         estimate D2E/DX2                !
 ! D260  D(73,72,77,79)        -58.9244         estimate D2E/DX2                !
 ! D261  D(73,72,77,80)       -178.5668         estimate D2E/DX2                !
 ! D262  D(81,72,77,78)        178.4001         estimate D2E/DX2                !
 ! D263  D(81,72,77,79)         58.8782         estimate D2E/DX2                !
 ! D264  D(81,72,77,80)        -60.7642         estimate D2E/DX2                !
 ! D265  D(59,72,81,82)        -60.1224         estimate D2E/DX2                !
 ! D266  D(59,72,81,83)       -179.8508         estimate D2E/DX2                !
 ! D267  D(59,72,81,84)         60.5445         estimate D2E/DX2                !
 ! D268  D(73,72,81,82)        177.5341         estimate D2E/DX2                !
 ! D269  D(73,72,81,83)         57.8057         estimate D2E/DX2                !
 ! D270  D(73,72,81,84)        -61.799          estimate D2E/DX2                !
 ! D271  D(77,72,81,82)         59.7603         estimate D2E/DX2                !
 ! D272  D(77,72,81,83)        -59.9682         estimate D2E/DX2                !
 ! D273  D(77,72,81,84)       -179.5729         estimate D2E/DX2                !
 ! D274  D(68,85,86,87)        -60.9088         estimate D2E/DX2                !
 ! D275  D(68,85,86,88)       -179.9738         estimate D2E/DX2                !
 ! D276  D(68,85,86,89)         60.9313         estimate D2E/DX2                !
 ! D277  D(90,85,86,87)         59.5228         estimate D2E/DX2                !
 ! D278  D(90,85,86,88)        -59.5422         estimate D2E/DX2                !
 ! D279  D(90,85,86,89)       -178.6371         estimate D2E/DX2                !
 ! D280  D(94,85,86,87)        178.36           estimate D2E/DX2                !
 ! D281  D(94,85,86,88)         59.2949         estimate D2E/DX2                !
 ! D282  D(94,85,86,89)        -59.8            estimate D2E/DX2                !
 ! D283  D(68,85,90,91)        -60.3823         estimate D2E/DX2                !
 ! D284  D(68,85,90,92)        179.8676         estimate D2E/DX2                !
 ! D285  D(68,85,90,93)         60.3136         estimate D2E/DX2                !
 ! D286  D(86,85,90,91)        176.9844         estimate D2E/DX2                !
 ! D287  D(86,85,90,92)         57.2343         estimate D2E/DX2                !
 ! D288  D(86,85,90,93)        -62.3197         estimate D2E/DX2                !
 ! D289  D(94,85,90,91)         58.8243         estimate D2E/DX2                !
 ! D290  D(94,85,90,92)        -60.9258         estimate D2E/DX2                !
 ! D291  D(94,85,90,93)        179.5202         estimate D2E/DX2                !
 ! D292  D(68,85,94,95)        -60.6196         estimate D2E/DX2                !
 ! D293  D(68,85,94,96)        179.8294         estimate D2E/DX2                !
 ! D294  D(68,85,94,97)         60.1176         estimate D2E/DX2                !
 ! D295  D(86,85,94,95)         62.1718         estimate D2E/DX2                !
 ! D296  D(86,85,94,96)        -57.3791         estimate D2E/DX2                !
 ! D297  D(86,85,94,97)       -177.0909         estimate D2E/DX2                !
 ! D298  D(90,85,94,95)       -179.6909         estimate D2E/DX2                !
 ! D299  D(90,85,94,96)         60.7581         estimate D2E/DX2                !
 ! D300  D(90,85,94,97)        -58.9537         estimate D2E/DX2                !
 ! D301  D(71,98,99,100)        -7.1787         estimate D2E/DX2                !
 ! D302  D(71,98,99,101)       168.6136         estimate D2E/DX2                !
 ! D303  D(106,98,99,100)      178.0669         estimate D2E/DX2                !
 ! D304  D(106,98,99,101)       -6.1408         estimate D2E/DX2                !
 ! D305  D(71,98,106,104)     -170.546          estimate D2E/DX2                !
 ! D306  D(71,98,106,107)        7.7175         estimate D2E/DX2                !
 ! D307  D(99,98,106,104)        4.2256         estimate D2E/DX2                !
 ! D308  D(99,98,106,107)     -177.5109         estimate D2E/DX2                !
 ! D309  D(98,99,101,102)     -174.7511         estimate D2E/DX2                !
 ! D310  D(98,99,101,103)        1.5677         estimate D2E/DX2                !
 ! D311  D(100,99,101,102)       1.0164         estimate D2E/DX2                !
 ! D312  D(100,99,101,103)     177.3351         estimate D2E/DX2                !
 ! D313  D(99,101,103,104)       4.9321         estimate D2E/DX2                !
 ! D314  D(99,101,103,108)    -168.6132         estimate D2E/DX2                !
 ! D315  D(102,101,103,104)   -178.6511         estimate D2E/DX2                !
 ! D316  D(102,101,103,108)      7.8036         estimate D2E/DX2                !
 ! D317  D(101,103,104,105)    178.2429         estimate D2E/DX2                !
 ! D318  D(101,103,104,106)     -6.8501         estimate D2E/DX2                !
 ! D319  D(108,103,104,105)     -8.1075         estimate D2E/DX2                !
 ! D320  D(108,103,104,106)    166.7995         estimate D2E/DX2                !
 ! D321  D(101,103,108,7)     -176.3852         estimate D2E/DX2                !
 ! D322  D(101,103,108,9)        8.9511         estimate D2E/DX2                !
 ! D323  D(104,103,108,7)       10.1021         estimate D2E/DX2                !
 ! D324  D(104,103,108,9)     -164.5616         estimate D2E/DX2                !
 ! D325  D(103,104,106,98)       2.2807         estimate D2E/DX2                !
 ! D326  D(103,104,106,107)   -175.9724         estimate D2E/DX2                !
 ! D327  D(105,104,106,98)     177.0256         estimate D2E/DX2                !
 ! D328  D(105,104,106,107)     -1.2274         estimate D2E/DX2                !
 ! D329  D(8,109,111,112)     -177.3106         estimate D2E/DX2                !
 ! D330  D(8,109,111,120)        0.9773         estimate D2E/DX2                !
 ! D331  D(9,109,111,112)       -2.0359         estimate D2E/DX2                !
 ! D332  D(9,109,111,120)      176.2519         estimate D2E/DX2                !
 ! D333  D(7,110,122,123)     -179.1458         estimate D2E/DX2                !
 ! D334  D(7,110,122,131)       -1.1805         estimate D2E/DX2                !
 ! D335  D(8,110,122,123)       -2.1189         estimate D2E/DX2                !
 ! D336  D(8,110,122,131)      175.8464         estimate D2E/DX2                !
 ! D337  D(109,111,112,113)     -2.4139         estimate D2E/DX2                !
 ! D338  D(109,111,112,114)    177.9503         estimate D2E/DX2                !
 ! D339  D(120,111,112,113)    179.228          estimate D2E/DX2                !
 ! D340  D(120,111,112,114)     -0.4078         estimate D2E/DX2                !
 ! D341  D(109,111,120,118)   -177.954          estimate D2E/DX2                !
 ! D342  D(109,111,120,121)      1.9228         estimate D2E/DX2                !
 ! D343  D(112,111,120,118)      0.3994         estimate D2E/DX2                !
 ! D344  D(112,111,120,121)   -179.7238         estimate D2E/DX2                !
 ! D345  D(111,112,114,115)    179.7067         estimate D2E/DX2                !
 ! D346  D(111,112,114,116)      0.0829         estimate D2E/DX2                !
 ! D347  D(113,112,114,115)      0.081          estimate D2E/DX2                !
 ! D348  D(113,112,114,116)   -179.5428         estimate D2E/DX2                !
 ! D349  D(112,114,116,117)    179.9378         estimate D2E/DX2                !
 ! D350  D(112,114,116,118)      0.2611         estimate D2E/DX2                !
 ! D351  D(115,114,116,117)      0.3154         estimate D2E/DX2                !
 ! D352  D(115,114,116,118)   -179.3614         estimate D2E/DX2                !
 ! D353  D(114,116,118,119)    179.6898         estimate D2E/DX2                !
 ! D354  D(114,116,118,120)     -0.2697         estimate D2E/DX2                !
 ! D355  D(117,116,118,119)      0.013          estimate D2E/DX2                !
 ! D356  D(117,116,118,120)   -179.9465         estimate D2E/DX2                !
 ! D357  D(116,118,120,111)     -0.0661         estimate D2E/DX2                !
 ! D358  D(116,118,120,121)   -179.9396         estimate D2E/DX2                !
 ! D359  D(119,118,120,111)    179.9742         estimate D2E/DX2                !
 ! D360  D(119,118,120,121)      0.1007         estimate D2E/DX2                !
 ! D361  D(110,122,123,124)     -2.1213         estimate D2E/DX2                !
 ! D362  D(110,122,123,125)    177.6095         estimate D2E/DX2                !
 ! D363  D(131,122,123,124)    179.8876         estimate D2E/DX2                !
 ! D364  D(131,122,123,125)     -0.3816         estimate D2E/DX2                !
 ! D365  D(110,122,131,129)   -177.6277         estimate D2E/DX2                !
 ! D366  D(110,122,131,132)      2.2648         estimate D2E/DX2                !
 ! D367  D(123,122,131,129)      0.3807         estimate D2E/DX2                !
 ! D368  D(123,122,131,132)   -179.7267         estimate D2E/DX2                !
 ! D369  D(122,123,125,126)   -179.9955         estimate D2E/DX2                !
 ! D370  D(122,123,125,127)      0.0666         estimate D2E/DX2                !
 ! D371  D(124,123,125,126)     -0.2735         estimate D2E/DX2                !
 ! D372  D(124,123,125,127)    179.7886         estimate D2E/DX2                !
 ! D373  D(123,125,127,128)    179.9476         estimate D2E/DX2                !
 ! D374  D(123,125,127,129)      0.2541         estimate D2E/DX2                !
 ! D375  D(126,125,127,128)      0.0098         estimate D2E/DX2                !
 ! D376  D(126,125,127,129)   -179.6837         estimate D2E/DX2                !
 ! D377  D(125,127,129,130)    179.4535         estimate D2E/DX2                !
 ! D378  D(125,127,129,131)     -0.2547         estimate D2E/DX2                !
 ! D379  D(128,127,129,130)     -0.2397         estimate D2E/DX2                !
 ! D380  D(128,127,129,131)   -179.9479         estimate D2E/DX2                !
 ! D381  D(127,129,131,122)     -0.0649         estimate D2E/DX2                !
 ! D382  D(127,129,131,132)   -179.9536         estimate D2E/DX2                !
 ! D383  D(130,129,131,122)   -179.7734         estimate D2E/DX2                !
 ! D384  D(130,129,131,132)      0.3378         estimate D2E/DX2                !
 --------------------------------------------------------------------------------
 Trust Radius=3.00D-01 FncErr=1.00D-07 GrdErr=1.00D-06 EigMax=2.50D+02 EigMin=1.00D-04
 Number of steps in this run=    792 maximum allowed number of steps=    792.
 GradGradGradGradGradGradGradGradGradGradGradGradGradGradGradGradGradGrad

 Stoichiometry    C61H62N8Pd
 Framework group  C1[X(C61H62N8Pd)]
 Deg. of freedom   390
 Full point group                 C1      NOp   1
 Largest Abelian subgroup         C1      NOp   1
 Largest concise Abelian subgroup C1      NOp   1
                         Standard orientation:                         
 ---------------------------------------------------------------------
 Center     Atomic      Atomic             Coordinates (Angstroms)
 Number     Number       Type             X           Y           Z
 ---------------------------------------------------------------------
      1         46           0       -0.129530    0.482640   -0.543982
      2          7           0        0.043392   -2.570358   -1.533810
      3          7           0        1.760228   -1.322773   -1.799537
      4          7           0        1.359738    2.944337   -0.155648
      5          7           0       -0.492791    3.367372    0.830603
      6          7           0       -2.141578    0.081307    0.035062
      7          7           0        4.251096    0.429188    1.690210
      8          7           0        6.118590   -0.256711    0.388997
      9          7           0        4.272473   -1.739617    0.718476
     10          6           0       -4.741787   -2.560047   -2.966959
     11          1           0       -4.718959   -1.468705   -3.033832
     12          1           0       -5.756609   -2.856794   -2.687482
     13          1           0       -4.538968   -2.960894   -3.965074
     14          6           0       -3.718946   -3.054892   -1.956497
     15          1           0       -3.768528   -4.147924   -1.877196
     16          1           0       -3.968791   -2.663873   -0.962939
     17          6           0       -2.301427   -2.633407   -2.316136
     18          1           0       -2.259219   -1.546666   -2.443992
     19          1           0       -2.004665   -3.077130   -3.273757
     20          6           0       -1.304115   -3.028521   -1.240784
     21          1           0       -1.594944   -2.604125   -0.279433
     22          1           0       -1.262646   -4.114108   -1.122089
     23          6           0        1.052143   -3.365821   -2.050388
     24          1           0        0.909018   -4.415264   -2.246239
     25          6           0        2.142239   -2.576398   -2.209893
     26          1           0        3.143560   -2.808863   -2.533112
     27          6           0        0.466232   -1.306267   -1.365695
     28          6           0        2.479537   -0.111580   -1.689349
     29          6           0        1.703099    0.873001   -1.107512
     30          6           0        2.270102    2.105453   -0.843251
     31          6           0        3.582464    2.391832   -1.190483
     32          1           0        4.043364    3.345138   -0.959201
     33          6           0        4.326305    1.387419   -1.807731
     34          1           0        5.362463    1.579723   -2.057650
     35          6           0        3.795728    0.122505   -2.059311
     36          1           0        4.417763   -0.655858   -2.485547
     37          6           0        0.121716    2.425553    0.092959
     38          6           0        1.511975    4.182701    0.420306
     39          1           0        2.426191    4.748669    0.360947
     40          6           0        0.336816    4.455831    1.038492
[...]
 ! D326  D(103,104,106,107)   -175.9724         -DE/DX =    0.0                 !
 ! D327  D(105,104,106,98)     177.0256         -DE/DX =    0.0                 !
 ! D328  D(105,104,106,107)     -1.2274         -DE/DX =    0.0                 !
 ! D329  D(8,109,111,112)     -177.3106         -DE/DX =    0.0                 !
 ! D330  D(8,109,111,120)        0.9773         -DE/DX =    0.0                 !
 ! D331  D(9,109,111,112)       -2.0359         -DE/DX =    0.0                 !
 ! D332  D(9,109,111,120)      176.2519         -DE/DX =    0.0                 !
 ! D333  D(7,110,122,123)     -179.1458         -DE/DX =    0.0                 !
 ! D334  D(7,110,122,131)       -1.1805         -DE/DX =    0.0                 !
 ! D335  D(8,110,122,123)       -2.1189         -DE/DX =    0.0                 !
 ! D336  D(8,110,122,131)      175.8464         -DE/DX =    0.0                 !
 ! D337  D(109,111,112,113)     -2.4139         -DE/DX =    0.0                 !
 ! D338  D(109,111,112,114)    177.9503         -DE/DX =    0.0                 !
 ! D339  D(120,111,112,113)    179.228          -DE/DX =    0.0                 !
 ! D340  D(120,111,112,114)     -0.4078         -DE/DX =    0.0                 !
 ! D341  D(109,111,120,118)   -177.954          -DE/DX =    0.0                 !
 ! D342  D(109,111,120,121)      1.9228         -DE/DX =    0.0                 !
 ! D343  D(112,111,120,118)      0.3994         -DE/DX =    0.0                 !
 ! D344  D(112,111,120,121)   -179.7238         -DE/DX =    0.0                 !
 ! D345  D(111,112,114,115)    179.7067         -DE/DX =    0.0                 !
 ! D346  D(111,112,114,116)      0.0829         -DE/DX =    0.0                 !
 ! D347  D(113,112,114,115)      0.081          -DE/DX =    0.0                 !
 ! D348  D(113,112,114,116)   -179.5428         -DE/DX =    0.0                 !
 ! D349  D(112,114,116,117)    179.9378         -DE/DX =    0.0                 !
 ! D350  D(112,114,116,118)      0.2611         -DE/DX =    0.0                 !
 ! D351  D(115,114,116,117)      0.3154         -DE/DX =    0.0                 !
 ! D352  D(115,114,116,118)   -179.3614         -DE/DX =    0.0                 !
 ! D353  D(114,116,118,119)    179.6898         -DE/DX =    0.0                 !
 ! D354  D(114,116,118,120)     -0.2697         -DE/DX =    0.0                 !
 ! D355  D(117,116,118,119)      0.013          -DE/DX =    0.0                 !
 ! D356  D(117,116,118,120)   -179.9465         -DE/DX =    0.0                 !
 ! D357  D(116,118,120,111)     -0.0661         -DE/DX =    0.0                 !
 ! D358  D(116,118,120,121)   -179.9396         -DE/DX =    0.0                 !
 ! D359  D(119,118,120,111)    179.9742         -DE/DX =    0.0                 !
 ! D360  D(119,118,120,121)      0.1007         -DE/DX =    0.0                 !
 ! D361  D(110,122,123,124)     -2.1213         -DE/DX =    0.0                 !
 ! D362  D(110,122,123,125)    177.6095         -DE/DX =    0.0                 !
 ! D363  D(131,122,123,124)    179.8876         -DE/DX =    0.0                 !
 ! D364  D(131,122,123,125)     -0.3816         -DE/DX =    0.0                 !
 ! D365  D(110,122,131,129)   -177.6277         -DE/DX =    0.0                 !
 ! D366  D(110,122,131,132)      2.2648         -DE/DX =    0.0                 !
 ! D367  D(123,122,131,129)      0.3807         -DE/DX =    0.0                 !
 ! D368  D(123,122,131,132)   -179.7267         -DE/DX =    0.0                 !
 ! D369  D(122,123,125,126)   -179.9955         -DE/DX =    0.0                 !
 ! D370  D(122,123,125,127)      0.0666         -DE/DX =    0.0                 !
 ! D371  D(124,123,125,126)     -0.2735         -DE/DX =    0.0                 !
 ! D372  D(124,123,125,127)    179.7886         -DE/DX =    0.0                 !
 ! D373  D(123,125,127,128)    179.9476         -DE/DX =    0.0                 !
 ! D374  D(123,125,127,129)      0.2541         -DE/DX =    0.0                 !
 ! D375  D(126,125,127,128)      0.0098         -DE/DX =    0.0                 !
 ! D376  D(126,125,127,129)   -179.6837         -DE/DX =    0.0                 !
 ! D377  D(125,127,129,130)    179.4535         -DE/DX =    0.0                 !
 ! D378  D(125,127,129,131)     -0.2547         -DE/DX =    0.0                 !
 ! D379  D(128,127,129,130)     -0.2397         -DE/DX =    0.0                 !
 ! D380  D(128,127,129,131)   -179.9479         -DE/DX =    0.0                 !
 ! D381  D(127,129,131,122)     -0.0649         -DE/DX =    0.0                 !
 ! D382  D(127,129,131,132)   -179.9536         -DE/DX =    0.0                 !
 ! D383  D(130,129,131,122)   -179.7734         -DE/DX =    0.0                 !
 ! D384  D(130,129,131,132)      0.3378         -DE/DX =    0.0                 !
 --------------------------------------------------------------------------------
 GradGradGradGradGradGradGradGradGradGradGradGradGradGradGradGradGradGrad

 Stoichiometry    C61H62N8Pd
 Framework group  C1[X(C61H62N8Pd)]
 Deg. of freedom   390
 Full point group                 C1      NOp   1
 Largest Abelian subgroup         C1      NOp   1
 Largest concise Abelian subgroup C1      NOp   1
                         Standard orientation:                         
 ---------------------------------------------------------------------
 Center     Atomic      Atomic             Coordinates (Angstroms)
 Number     Number       Type             X           Y           Z
 ---------------------------------------------------------------------
      1         46           0       -0.129530    0.482640   -0.543982
      2          7           0        0.043392   -2.570358   -1.533810
      3          7           0        1.760228   -1.322773   -1.799537
      4          7           0        1.359738    2.944337   -0.155648
      5          7           0       -0.492791    3.367372    0.830603
      6          7           0       -2.141578    0.081307    0.035062
      7          7           0        4.251096    0.429188    1.690210
      8          7           0        6.118590   -0.256711    0.388997
      9          7           0        4.272473   -1.739617    0.718476
     10          6           0       -4.741787   -2.560047   -2.966959
     11          1           0       -4.718959   -1.468705   -3.033832
     12          1           0       -5.756609   -2.856794   -2.687482
     13          1           0       -4.538968   -2.960894   -3.965074
     14          6           0       -3.718946   -3.054892   -1.956497
     15          1           0       -3.768528   -4.147924   -1.877196
     16          1           0       -3.968791   -2.663873   -0.962939
     17          6           0       -2.301427   -2.633407   -2.316136
     18          1           0       -2.259219   -1.546666   -2.443992
     19          1           0       -2.004665   -3.077130   -3.273757
     20          6           0       -1.304115   -3.028521   -1.240784
     21          1           0       -1.594944   -2.604125   -0.279433
     22          1           0       -1.262646   -4.114108   -1.122089
     23          6           0        1.052143   -3.365821   -2.050388
     24          1           0        0.909018   -4.415264   -2.246239
     25          6           0        2.142239   -2.576398   -2.209893
     26          1           0        3.143560   -2.808863   -2.533112
     27          6           0        0.466232   -1.306267   -1.365695
     28          6           0        2.479537   -0.111580   -1.689349
     29          6           0        1.703099    0.873001   -1.107512
     30          6           0        2.270102    2.105453   -0.843251
     31          6           0        3.582464    2.391832   -1.190483
     32          1           0        4.043364    3.345138   -0.959201
     33          6           0        4.326305    1.387419   -1.807731
     34          1           0        5.362463    1.579723   -2.057650
     35          6           0        3.795728    0.122505   -2.059311
     36          1           0        4.417763   -0.655858   -2.485547
     37          6           0        0.121716    2.425553    0.092959
     38          6           0        1.511975    4.182701    0.420306
     39          1           0        2.426191    4.748669    0.360947
     40          6           0        0.336816    4.455831    1.038492
     41          1           0        0.024221    5.316046    1.606762
     42          6           0       -1.865741    3.273596    1.297593
     43          1           0       -1.900839    3.642490    2.326657
     44          1           0       -2.117713    2.213316    1.314957
     45          6           0       -2.832176    4.040786    0.410945
     46          1           0       -2.589093    5.109744    0.442790
     47          1           0       -2.691026    3.714546   -0.625352
     48          6           0       -4.280261    3.822486    0.823583
     49          1           0       -4.522480    2.757879    0.725658
     50          1           0       -4.401595    4.072663    1.884938
     51          6           0       -5.247654    4.644961   -0.012475
     52          1           0       -6.285231    4.455409    0.275520
     53          1           0       -5.146059    4.401308   -1.073887
     54          1           0       -5.059315    5.716795    0.104372
     55          6           0       -3.215365    1.234991   -1.886687
     56          1           0       -2.277615    1.572132   -2.314968
     57          6           0       -4.431443    1.511558   -2.485672
     58          1           0       -4.433602    2.082489   -3.406979
     59          6           0       -5.656583    1.062811   -1.954930
     60          6           0       -5.644063    0.324817   -0.759559
     61          1           0       -6.570353   -0.034139   -0.328930
     62          6           0       -4.442096    0.041929   -0.141960
     63          6           0       -3.219593    0.488347   -0.704858
     64          6           0       -2.641632   -0.630829    1.101703
     65          6           0       -4.061607   -0.706194    1.046802
     66          6           0       -4.763517   -1.435224    1.976929
     67          1           0       -5.844821   -1.495360    1.918253
     68          6           0       -4.069257   -2.121666    2.996469
     69          6           0       -2.675414   -2.030733    3.038064
     70          1           0       -2.126350   -2.543339    3.817193
     71          6           0       -1.930683   -1.289817    2.118710
     72          6           0       -6.948261    1.352660   -2.711596
     73          6           0       -8.178402    0.800127   -1.992516
     74          1           0       -8.133721   -0.287941   -1.887705
     75          1           0       -9.073630    1.038425   -2.572606
     76          1           0       -8.300889    1.241722   -0.998966
     77          6           0       -7.126252    2.868334   -2.873634
     78          1           0       -7.215990    3.356450   -1.900086
     79          1           0       -8.036090    3.074619   -3.445063
     80          1           0       -6.287687    3.324219   -3.405788
     81          6           0       -6.866172    0.698620   -4.099719
     82          1           0       -6.027284    1.086807   -4.682499
     83          1           0       -7.785173    0.898951   -4.658622
     84          1           0       -6.746493   -0.384819   -4.014721
     85          6           0       -4.862360   -2.938235    4.008107
     86          6           0       -3.965532   -3.615077    5.043315
     87          1           0       -3.262704   -4.312295    4.578367
     88          1           0       -4.584922   -4.185232    5.740572
     89          1           0       -3.395568   -2.885930    5.626067
     90          6           0       -5.648513   -4.026584    3.261400
     91          1           0       -6.350547   -3.601011    2.539760
     92          1           0       -6.223271   -4.625386    3.974187
     93          1           0       -4.970613   -4.694055    2.721821
     94          6           0       -5.841367   -2.011958    4.744513
     95          1           0       -5.303225   -1.224628    5.279728
     96          1           0       -6.420339   -2.587247    5.473089
     97          1           0       -6.546778   -1.535049    4.059161
     98          6           0       -0.455716   -1.225331    2.170956
     99          6           0        0.316536   -2.346150    1.851868
    100          1           0       -0.171720   -3.300232    1.678002
    101          6           0        1.684592   -2.222961    1.672642
    102          1           0        2.283235   -3.063891    1.343170
    103          6           0        2.311882   -0.988423    1.839906
    104          6           0        1.561356    0.095768    2.290335
    105          1           0        2.068325    1.040487    2.443012
    106          6           0        0.185308   -0.015324    2.431913
    107          1           0       -0.403380    0.849645    2.720063
    108          6           0        3.717806   -0.778522    1.414262
    109          6           0        5.500941   -1.456033    0.182321
    110          6           0        5.467533    0.617850    1.117951
    111          6           0        6.100438   -2.410621   -0.702029
    112          6           0        5.466275   -3.645330   -0.990035
    113          1           0        4.530570   -3.867040   -0.490802
    114          6           0        6.028026   -4.545594   -1.876545
    115          1           0        5.519945   -5.486012   -2.072900
    116          6           0        7.239639   -4.267632   -2.515458
    117          1           0        7.676357   -4.977430   -3.208994
    118          6           0        7.879945   -3.056085   -2.235015
    119          1           0        8.825164   -2.823641   -2.717589
    120          6           0        7.331078   -2.146656   -1.351920
    121          1           0        7.830750   -1.209197   -1.138981
    122          6           0        6.068330    1.959039    1.284701
    123          6           0        7.309551    2.266425    0.720965
    124          1           0        7.836035    1.483596    0.187526
    125          6           0        7.842466    3.540971    0.840557
    126          1           0        8.807648    3.765634    0.397560
    127          6           0        7.144794    4.533078    1.527763
    128          1           0        7.563479    5.529958    1.621314
    129          6           0        5.912063    4.233490    2.097403
    130          1           0        5.366533    4.998469    2.641943
    131          6           0        5.376870    2.956647    1.978288
    132          1           0        4.418099    2.702047    2.413550
 ---------------------------------------------------------------------
 Rotational constants (GHZ):           0.0519015           0.0225444           0.0205854
 Unable to Open any file for archive entry.
 1\1\GINC-CLUSTER\FOpt\RPBE1PBE TD-FC\GenECP\C61H62N8Pd1\xxxxxx\19-Jan-
 2026\0\\# opt td=(nstates=5) PBE1PBE/genecp scrf=(solvent=toluene) em=
 gd3bj\\s1 opt\\0,1\Pd,-0.12953,0.48264,-0.543982\N,0.043392,-2.570358,
 -1.53381\N,1.760228,-1.322773,-1.799537\N,1.359738,2.944337,-0.155648\
 N,-0.492791,3.367372,0.830603\N,-2.141578,0.081307,0.035062\N,4.251096
 ,0.429188,1.69021\N,6.11859,-0.256711,0.388997\N,4.272473,-1.739617,0.
 718476\C,-4.741787,-2.560047,-2.966959\H,-4.718959,-1.468705,-3.033832
 \H,-5.756609,-2.856794,-2.687482\H,-4.538968,-2.960894,-3.965074\C,-3.
 718946,-3.054892,-1.956497\H,-3.768528,-4.147924,-1.877196\H,-3.968791
 ,-2.663873,-0.962939\C,-2.301427,-2.633407,-2.316136\H,-2.259219,-1.54
 6666,-2.443992\H,-2.004665,-3.07713,-3.273757\C,-1.304115,-3.028521,-1
 .240784\H,-1.594944,-2.604125,-0.279433\H,-1.262646,-4.114108,-1.12208
 9\C,1.052143,-3.365821,-2.050388\H,0.909018,-4.415264,-2.246239\C,2.14
 2239,-2.576398,-2.209893\H,3.14356,-2.808863,-2.533112\C,0.466232,-1.3
 06267,-1.365695\C,2.479537,-0.11158,-1.689349\C,1.703099,0.873001,-1.1
 07512\C,2.270102,2.105453,-0.843251\C,3.582464,2.391832,-1.190483\H,4.
 043364,3.345138,-0.959201\C,4.326305,1.387419,-1.807731\H,5.362463,1.5
 79723,-2.05765\C,3.795728,0.122505,-2.059311\H,4.417763,-0.655858,-2.4
 85547\C,0.121716,2.425553,0.092959\C,1.511975,4.182701,0.420306\H,2.42
 6191,4.748669,0.360947\C,0.336816,4.455831,1.038492\H,0.024221,5.31604
 6,1.606762\C,-1.865741,3.273596,1.297593\H,-1.900839,3.64249,2.326657\
 H,-2.117713,2.213316,1.314957\C,-2.832176,4.040786,0.410945\H,-2.58909
 3,5.109744,0.44279\H,-2.691026,3.714546,-0.625352\C,-4.280261,3.822486
 ,0.823583\H,-4.52248,2.757879,0.725658\H,-4.401595,4.072663,1.884938\C
 ,-5.247654,4.644961,-0.012475\H,-6.285231,4.455409,0.27552\H,-5.146059
 ,4.401308,-1.073887\H,-5.059315,5.716795,0.104372\C,-3.215365,1.234991
 ,-1.886687\H,-2.277615,1.572132,-2.314968\C,-4.431443,1.511558,-2.4856
 72\H,-4.433602,2.082489,-3.406979\C,-5.656583,1.062811,-1.95493\C,-5.6
 44063,0.324817,-0.759559\H,-6.570353,-0.034139,-0.32893\C,-4.442096,0.
 041929,-0.14196\C,-3.219593,0.488347,-0.704858\C,-2.641632,-0.630829,1
 .101703\C,-4.061607,-0.706194,1.046802\C,-4.763517,-1.435224,1.976929\
 H,-5.844821,-1.49536,1.918253\C,-4.069257,-2.121666,2.996469\C,-2.6754
 14,-2.030733,3.038064\H,-2.12635,-2.543339,3.817193\C,-1.930683,-1.289
 817,2.11871\C,-6.948261,1.35266,-2.711596\C,-8.178402,0.800127,-1.9925
 16\H,-8.133721,-0.287941,-1.887705\H,-9.07363,1.038425,-2.572606\H,-8.
 300889,1.241722,-0.998966\C,-7.126252,2.868334,-2.873634\H,-7.21599,3.
 35645,-1.900086\H,-8.03609,3.074619,-3.445063\H,-6.287687,3.324219,-3.
 405788\C,-6.866172,0.69862,-4.099719\H,-6.027284,1.086807,-4.682499\H,
 -7.785173,0.898951,-4.658622\H,-6.746493,-0.384819,-4.014721\C,-4.8623
 6,-2.938235,4.008107\C,-3.965532,-3.615077,5.043315\H,-3.262704,-4.312
 295,4.578367\H,-4.584922,-4.185232,5.740572\H,-3.395568,-2.88593,5.626
 067\C,-5.648513,-4.026584,3.2614\H,-6.350547,-3.601011,2.53976\H,-6.22
 3271,-4.625386,3.974187\H,-4.970613,-4.694055,2.721821\C,-5.841367,-2.
 011958,4.744513\H,-5.303225,-1.224628,5.279728\H,-6.420339,-2.587247,5
 .473089\H,-6.546778,-1.535049,4.059161\C,-0.455716,-1.225331,2.170956\
 C,0.316536,-2.34615,1.851868\H,-0.17172,-3.300232,1.678002\C,1.684592,
 -2.222961,1.672642\H,2.283235,-3.063891,1.34317\C,2.311882,-0.988423,1
 .839906\C,1.561356,0.095768,2.290335\H,2.068325,1.040487,2.443012\C,0.
 185308,-0.015324,2.431913\H,-0.40338,0.849645,2.720063\C,3.717806,-0.7
 78522,1.414262\C,5.500941,-1.456033,0.182321\C,5.467533,0.61785,1.1179
 51\C,6.100438,-2.410621,-0.702029\C,5.466275,-3.64533,-0.990035\H,4.53
 057,-3.86704,-0.490802\C,6.028026,-4.545594,-1.876545\H,5.519945,-5.48
 6012,-2.0729\C,7.239639,-4.267632,-2.515458\H,7.676357,-4.97743,-3.208
 994\C,7.879945,-3.056085,-2.235015\H,8.825164,-2.823641,-2.717589\C,7.
 331078,-2.146656,-1.35192\H,7.83075,-1.209197,-1.138981\C,6.06833,1.95
 9039,1.284701\C,7.309551,2.266425,0.720965\H,7.836035,1.483596,0.18752
 6\C,7.842466,3.540971,0.840557\H,8.807648,3.765634,0.39756\C,7.144794,
 4.533078,1.527763\H,7.563479,5.529958,1.621314\C,5.912063,4.23349,2.09
 7403\H,5.366533,4.998469,2.641943\C,5.37687,2.956647,1.978288\H,4.4180
 99,2.702047,2.41355\\Version=ES64L-G16RevC.02\State=1-A\HF=-2925.40909
 24\RMSD=5.447e-09\RMSF=8.737e-07\Dipole=-10.4926948,1.8643082,-0.50132
 24\PG=C01 [X(C61H62N8Pd1)]\\@
 The archive entry for this job was punched.


 THERE'S NOTHING SO GREAT AS THE GREAT OUTDOORS.

                                       -- ZIGGY
 Job cpu time:       2 days 22 hours 59 minutes 48.1 seconds.
 Elapsed time:       0 days  0 hours 48 minutes 43.5 seconds.
 File lengths (MBytes):  RWF=  13071 Int=      0 D2E=      0 Chk=    687 Scr=      1
 Normal termination of Gaussian 16 at Mon Jan 19 17:25:33 2026.
