 Entering Gaussian System, Link 0=g16
 Initial command:
 /public/software/g16/l1.exe "/tmp/Gau-95192.inp" -scrdir="/tmp/"
 Entering Link 1 = /public/software/g16/l1.exe PID=     95194.
  
 Copyright (c) 1988-2021, Gaussian, Inc.  All Rights Reserved.
  
 This is part of the Gaussian(R) 16 program.  It is based on
 the Gaussian(R) 09 system (copyright 2009, Gaussian, Inc.),
 the Gaussian(R) 03 system (copyright 2003, Gaussian, Inc.),
 the Gaussian(R) 98 system (copyright 1998, Gaussian, Inc.),
 the Gaussian(R) 94 system (copyright 1995, Gaussian, Inc.),
 the Gaussian 92(TM) system (copyright 1992, Gaussian, Inc.),
 the Gaussian 90(TM) system (copyright 1990, Gaussian, Inc.),
 the Gaussian 88(TM) system (copyright 1988, Gaussian, Inc.),
 the Gaussian 86(TM) system (copyright 1986, Carnegie Mellon
 University), and the Gaussian 82(TM) system (copyright 1983,
 Carnegie Mellon University). Gaussian is a federally registered
 trademark of Gaussian, Inc.
  
 This software contains proprietary and confidential information,
 including trade secrets, belonging to Gaussian, Inc.
  
 This software is provided under written license and may be
 used, copied, transmitted, or stored only in accord with that
 written license.
  
 The following legend is applicable only to US Government
 contracts under FAR:
  
                    RESTRICTED RIGHTS LEGEND
  
 Use, reproduction and disclosure by the US Government is
 subject to restrictions as set forth in subparagraphs (a)
 and (c) of the Commercial Computer Software - Restricted
 Rights clause in FAR 52.227-19.
  
 Gaussian, Inc.
 340 Quinnipiac St., Bldg. 40, Wallingford CT 06492
  
  
 ---------------------------------------------------------------
 Warning -- This program may not be used in any manner that
 competes with the business of Gaussian, Inc. or will provide
 assistance to any competitor of Gaussian, Inc.  The licensee
 of this program is prohibited from giving any competitor of
 Gaussian, Inc. access to this program.  By using this program,
 the user acknowledges that Gaussian, Inc. is engaged in the
 business of creating and licensing software in the field of
 computational chemistry and represents and warrants to the
 licensee that it is not a competitor of Gaussian, Inc. and that
 it will not use this program in any manner prohibited above.
 ---------------------------------------------------------------
  

 Cite this work as:
 Gaussian 16, Revision C.02,
 M. J. Frisch, G. W. Trucks, H. B. Schlegel, G. E. Scuseria, 
 M. A. Robb, J. R. Cheeseman, G. Scalmani, V. Barone, 
 G. A. Petersson, H. Nakatsuji, X. Li, M. Caricato, A. V. Marenich, 
 J. Bloino, B. G. Janesko, R. Gomperts, B. Mennucci, H. P. Hratchian, 
 J. V. Ortiz, A. F. Izmaylov, J. L. Sonnenberg, D. Williams-Young, 
 F. Ding, F. Lipparini, F. Egidi, J. Goings, B. Peng, A. Petrone, 
 T. Henderson, D. Ranasinghe, V. G. Zakrzewski, J. Gao, N. Rega, 
 G. Zheng, W. Liang, M. Hada, M. Ehara, K. Toyota, R. Fukuda, 
 J. Hasegawa, M. Ishida, T. Nakajima, Y. Honda, O. Kitao, H. Nakai, 
 T. Vreven, K. Throssell, J. A. Montgomery, Jr., J. E. Peralta, 
 F. Ogliaro, M. J. Bearpark, J. J. Heyd, E. N. Brothers, K. N. Kudin, 
 V. N. Staroverov, T. A. Keith, R. Kobayashi, J. Normand, 
 K. Raghavachari, A. P. Rendell, J. C. Burant, S. S. Iyengar, 
 J. Tomasi, M. Cossi, J. M. Millam, M. Klene, C. Adamo, R. Cammi, 
 J. W. Ochterski, R. L. Martin, K. Morokuma, O. Farkas, 
 J. B. Foresman, and D. J. Fox, Gaussian, Inc., Wallingford CT, 2019.
 
 ******************************************
 Gaussian 16:  ES64L-G16RevC.02  7-Dec-2021
                20-Jan-2026 
 ******************************************
 %nprocshared=96
 Will use up to   96 processors via shared memory.
 %mem=345GB
 %chk=t1-3.chk
 ----------------------------------------------------
 # opt PBE1PBE/genecp scrf=(solvent=toluene) em=gd3bj
 ----------------------------------------------------
 1/18=20,19=15,26=3,38=1/1,3;
 2/9=110,12=2,17=6,18=5,40=1/2;
 3/5=7,11=2,16=1,17=8,25=1,30=1,70=2201,71=1,72=13,74=-13,124=41/1,2,3;
 4//1;
 5/5=2,38=5,53=13/2;
 6/7=2,8=2,9=2,10=2,28=1/1;
 7//1,2,3,16;
 1/18=20,19=15,26=3/3(2);
 2/9=110/2;
 99//99;
 2/9=110/2;
 3/5=7,6=1,11=2,16=1,17=8,25=1,30=1,70=2205,71=1,72=13,74=-13,82=7,124=41/1,2,3;
 4/5=5,16=3,69=1/1;
 5/5=2,38=5,53=13/2;
 7//1,2,3,16;
 1/18=20,19=15,26=3/3(-5);
 2/9=110/2;
 6/7=2,8=2,9=2,10=2,19=2,28=1/1;
 99/9=1/99;
 ------
 t1 opt
 ------
 Symbolic Z-matrix:
 Charge =  0 Multiplicity = 3
 Pd                   -0.21526   0.6096   -0.48143 
 N                     0.00138  -2.35491  -1.73833 
 N                     1.70367  -1.06514  -1.86306 
 N                     1.18436   3.11876  -0.04757 
 N                    -0.63048   3.40873   1.0529 
 N                    -2.18013   0.09936   0.16958 
 N                     4.20397   0.45599   1.46433 
 N                     6.21241  -0.11473   0.34618 
 N                     4.5112   -1.74733   0.61039 
 C                    -4.7792   -1.99555  -3.12742 
 H                    -4.76569  -0.92213  -2.91748 
 H                    -5.79445  -2.35792  -2.94232 
 H                    -4.56353  -2.13327  -4.19204 
 C                    -3.76296  -2.72301  -2.26021 
 H                    -3.80731  -3.80219  -2.45495 
 H                    -4.0219   -2.58854  -1.20393 
 C                    -2.34566  -2.22012  -2.49242 
 H                    -2.31147  -1.13518  -2.3498 
 H                    -2.03812  -2.41473  -3.52714 
 C                    -1.34923  -2.86006  -1.54098 
 H                    -1.63364  -2.67416  -0.50533 
 H                    -1.31087  -3.94299  -1.68268 
 C                     1.02332  -3.08043  -2.32276 
 H                     0.89302  -4.10561  -2.62615 
 C                     2.10351  -2.26637  -2.39614 
 H                     3.10104  -2.44602  -2.75897 
 C                     0.40484  -1.10813  -1.43682 
 C                     2.38659   0.15862  -1.69955 
 C                     1.57919   1.09912  -1.08654 
 C                     2.10486   2.34386  -0.79113 
 C                     3.4002    2.69038  -1.14809 
 H                     3.82456   3.65749  -0.90449 
 C                     4.17775   1.72867  -1.79219 
 H                     5.2018    1.96908  -2.05175 
 C                     3.69371   0.44991  -2.06458 
 H                     4.33789  -0.28968  -2.52652 
 C                    -0.02255   2.5361    0.22903 
 C                     1.32012   4.32617   0.59654 
 H                     2.20718   4.93274   0.52496 
 C                     0.16947   4.51405   1.28721 
 H                    -0.14469   5.32611   1.9215 
 C                    -1.95426   3.21453   1.62298 
 H                    -1.88182   3.34581   2.70699 
 H                    -2.22205   2.17595   1.42961 
 C                    -2.99111   4.15456   1.03248 
 H                    -2.74454   5.19076   1.29551 
 H                    -2.94976   4.08457  -0.05986 
 C                    -4.39536   3.81619   1.51191 
 H                    -4.65574   2.80974   1.16369 
 H                    -4.41041   3.78043   2.60851 
 C                    -5.42937   4.81508   1.01766 
 H                    -6.43566   4.54441   1.34835 
 H                    -5.4385    4.85679  -0.07541 
 H                    -5.21554   5.82252   1.389 
 C                    -3.3996    1.61828  -1.38972 
 H                    -2.49793   2.08413  -1.77416 
 C                    -4.65578   1.96118  -1.86385 
 H                    -4.72581   2.72246  -2.63315 
 C                    -5.83446   1.34128  -1.40185 
 C                    -5.73157   0.35465  -0.4163 
 H                    -6.6168   -0.15141  -0.05065 
 C                    -4.48439  -0.00008   0.07791 
 C                    -3.31544   0.63154  -0.40902 
 C                    -2.60177  -0.86618   1.04522 
 C                    -4.01624  -1.01291   1.00398 
 C                    -4.63572  -2.08017   1.61917 
 H                    -5.71133  -2.20002   1.55353 
 C                    -3.84328  -3.06178   2.27484 
 C                    -2.46829  -2.90264   2.32267 
 H                    -1.86171  -3.62557   2.85319 
 C                    -1.79339  -1.78312   1.77277 
 C                    -7.17256   1.72554  -2.02811 
 C                    -8.34383   0.97225  -1.39854 
 H                    -8.25302  -0.10897  -1.53851 
 H                    -9.27689   1.28946  -1.87234 
 H                    -8.42811   1.17741  -0.32711 
 C                    -7.41976   3.22911  -1.85072 
 H                    -7.47202   3.4916   -0.79097 
 H                    -8.36713   3.51076  -2.32114 
 H                    -6.62881   3.8288   -2.30817 
 C                    -7.13362   1.38898  -3.52644 
 H                    -6.34119   1.93662  -4.04281 
 H                    -8.08689   1.65265  -3.99568 
 H                    -6.95904   0.32028  -3.67988 
 C                    -4.54549  -4.25988   2.90225 
 C                    -3.57087  -5.22769   3.57097 
 H                    -2.84957  -5.63395   2.85592 
 H                    -4.12735  -6.06781   3.99574 
 H                    -3.01843  -4.74885   4.38437 
 C                    -5.30231  -5.02118   1.8028 
 H                    -6.05607  -4.39564   1.31814 
 H                    -5.8117   -5.88996   2.23158 
 H                    -4.61125  -5.37467   1.03189 
 C                    -5.54067  -3.7651    3.96164 
 H                    -5.02128  -3.22061   4.75528 
 H                    -6.06137  -4.61564   4.41284 
 H                    -6.29404  -3.09926   3.53326 
 C                    -0.37123  -1.60865   1.87241 
 C                     0.53564  -2.67105   1.62667 
 H                     0.14526  -3.67354   1.47491 
 C                     1.87486  -2.43141   1.45445 
 H                     2.54652  -3.23336   1.17267 
 C                     2.41149  -1.12187   1.59971 
 C                     1.53222  -0.09628   2.02125 
 H                     1.94059   0.88946   2.20582 
 C                     0.18027  -0.32109   2.10443 
 H                    -0.4826    0.48207   2.41 
 C                     3.75737  -0.80607   1.23784 
 C                     5.69494  -1.34682   0.18719 
 C                     5.40287   0.73967   1.00325 
 C                     6.51338  -2.32633  -0.56507 
 C                     6.03052  -3.61481  -0.80923 
 H                     5.05426  -3.87907  -0.42018 
 C                     6.78904  -4.52406  -1.53141 
 H                     6.40593  -5.52309  -1.71347 
 C                     8.04115  -4.15938  -2.01997 
 H                     8.63453  -4.87153  -2.58425 
 C                     8.52821  -2.87929  -1.77956 
 H                     9.50427  -2.59073  -2.15615 
 C                     7.76993  -1.9675   -1.05701 
 H                     8.13196  -0.96584  -0.85959 
 C                     5.88337   2.12784   1.18409 
 C                     7.11248   2.52812   0.65843 
 H                     7.71877   1.78953   0.14791 
 C                     7.53531   3.84563   0.78422 
 H                     8.49181   4.1471    0.36944 
 C                     6.73808   4.77699   1.44011 
 H                     7.0699    5.8055    1.53898 
 C                     5.51368   4.38124   1.97479 
 H                     4.89084   5.1018    2.49586 
 C                     5.08937   3.06744   1.84725 
 H                     4.1368    2.74129   2. 
 

 GradGradGradGradGradGradGradGradGradGradGradGradGradGradGradGradGradGrad
 Berny optimization.
 Initialization pass.
                           ----------------------------
                           !    Initial Parameters    !
                           ! (Angstroms and Degrees)  !
 --------------------------                            --------------------------
 ! Name  Definition              Value          Derivative Info.                !
 --------------------------------------------------------------------------------
 ! R1    R(1,6)                  2.1319         estimate D2E/DX2                !
 ! R2    R(1,27)                 2.061          estimate D2E/DX2                !
 ! R3    R(1,29)                 1.956          estimate D2E/DX2                !
 ! R4    R(1,37)                 2.0624         estimate D2E/DX2                !
 ! R5    R(2,20)                 1.4554         estimate D2E/DX2                !
 ! R6    R(2,23)                 1.3829         estimate D2E/DX2                !
 ! R7    R(2,27)                 1.3447         estimate D2E/DX2                !
 ! R8    R(3,25)                 1.3737         estimate D2E/DX2                !
 ! R9    R(3,27)                 1.3677         estimate D2E/DX2                !
 ! R10   R(3,28)                 1.4109         estimate D2E/DX2                !
 ! R11   R(4,30)                 1.4145         estimate D2E/DX2                !
 ! R12   R(4,37)                 1.3684         estimate D2E/DX2                !
 ! R13   R(4,38)                 1.3752         estimate D2E/DX2                !
 ! R14   R(5,37)                 1.3453         estimate D2E/DX2                !
 ! R15   R(5,40)                 1.3844         estimate D2E/DX2                !
 ! R16   R(5,42)                 1.4543         estimate D2E/DX2                !
 ! R17   R(6,63)                 1.3809         estimate D2E/DX2                !
 ! R18   R(6,64)                 1.37           estimate D2E/DX2                !
 ! R19   R(7,108)                1.3578         estimate D2E/DX2                !
 ! R20   R(7,110)                1.3155         estimate D2E/DX2                !
 ! R21   R(8,109)                1.3458         estimate D2E/DX2                !
 ! R22   R(8,110)                1.348          estimate D2E/DX2                !
 ! R23   R(9,108)                1.3594         estimate D2E/DX2                !
 ! R24   R(9,109)                1.3194         estimate D2E/DX2                !
 ! R25   R(10,11)                1.0938         estimate D2E/DX2                !
 ! R26   R(10,12)                1.0938         estimate D2E/DX2                !
 ! R27   R(10,13)                1.0949         estimate D2E/DX2                !
 ! R28   R(10,14)                1.5212         estimate D2E/DX2                !
 ! R29   R(14,15)                1.0975         estimate D2E/DX2                !
 ! R30   R(14,16)                1.0958         estimate D2E/DX2                !
 ! R31   R(14,17)                1.5217         estimate D2E/DX2                !
 ! R32   R(17,18)                1.0948         estimate D2E/DX2                !
 ! R33   R(17,19)                1.0969         estimate D2E/DX2                !
 ! R34   R(17,20)                1.5191         estimate D2E/DX2                !
 ! R35   R(20,21)                1.09           estimate D2E/DX2                !
 ! R36   R(20,22)                1.0928         estimate D2E/DX2                !
 ! R37   R(23,24)                1.077          estimate D2E/DX2                !
 ! R38   R(23,25)                1.3546         estimate D2E/DX2                !
 ! R39   R(25,26)                1.0766         estimate D2E/DX2                !
 ! R40   R(28,29)                1.3828         estimate D2E/DX2                !
 ! R41   R(28,35)                1.388          estimate D2E/DX2                !
 ! R42   R(29,30)                1.3831         estimate D2E/DX2                !
 ! R43   R(30,31)                1.3876         estimate D2E/DX2                !
 ! R44   R(31,32)                1.0839         estimate D2E/DX2                !
 ! R45   R(31,33)                1.3944         estimate D2E/DX2                !
 ! R46   R(33,34)                1.0834         estimate D2E/DX2                !
 ! R47   R(33,35)                1.3942         estimate D2E/DX2                !
 ! R48   R(35,36)                1.0841         estimate D2E/DX2                !
 ! R49   R(38,39)                1.077          estimate D2E/DX2                !
 ! R50   R(38,40)                1.3551         estimate D2E/DX2                !
 ! R51   R(40,41)                1.0772         estimate D2E/DX2                !
 ! R52   R(42,43)                1.0943         estimate D2E/DX2                !
 ! R53   R(42,44)                1.0898         estimate D2E/DX2                !
 ! R54   R(42,45)                1.519          estimate D2E/DX2                !
 ! R55   R(45,46)                1.0971         estimate D2E/DX2                !
 ! R56   R(45,47)                1.0954         estimate D2E/DX2                !
 ! R57   R(45,48)                1.5219         estimate D2E/DX2                !
 ! R58   R(48,49)                1.0964         estimate D2E/DX2                !
 ! R59   R(48,50)                1.0973         estimate D2E/DX2                !
 ! R60   R(48,51)                1.5203         estimate D2E/DX2                !
 ! R61   R(51,52)                1.0933         estimate D2E/DX2                !
 ! R62   R(51,53)                1.0939         estimate D2E/DX2                !
 ! R63   R(51,54)                1.0948         estimate D2E/DX2                !
 ! R64   R(55,56)                1.0853         estimate D2E/DX2                !
 ! R65   R(55,57)                1.3858         estimate D2E/DX2                !
 ! R66   R(55,63)                1.3937         estimate D2E/DX2                !
 ! R67   R(57,58)                1.0846         estimate D2E/DX2                !
 ! R68   R(57,59)                1.4096         estimate D2E/DX2                !
 ! R69   R(59,60)                1.3983         estimate D2E/DX2                !
 ! R70   R(59,72)                1.5266         estimate D2E/DX2                !
 ! R71   R(60,61)                1.0832         estimate D2E/DX2                !
 ! R72   R(60,62)                1.3876         estimate D2E/DX2                !
 ! R73   R(62,63)                1.4151         estimate D2E/DX2                !
 ! R74   R(62,65)                1.45           estimate D2E/DX2                !
 ! R75   R(64,65)                1.4227         estimate D2E/DX2                !
 ! R76   R(64,71)                1.4225         estimate D2E/DX2                !
 ! R77   R(65,66)                1.3789         estimate D2E/DX2                !
 ! R78   R(66,67)                1.0843         estimate D2E/DX2                !
 ! R79   R(66,68)                1.4218         estimate D2E/DX2                !
 ! R80   R(68,69)                1.385          estimate D2E/DX2                !
 ! R81   R(68,85)                1.5239         estimate D2E/DX2                !
 ! R82   R(69,70)                1.0826         estimate D2E/DX2                !
 ! R83   R(69,71)                1.4182         estimate D2E/DX2                !
 ! R84   R(71,98)                1.4363         estimate D2E/DX2                !
 ! R85   R(72,73)                1.5283         estimate D2E/DX2                !
 ! R86   R(72,77)                1.534          estimate D2E/DX2                !
 ! R87   R(72,81)                1.5362         estimate D2E/DX2                !
 ! R88   R(73,74)                1.094          estimate D2E/DX2                !
 ! R89   R(73,75)                1.0935         estimate D2E/DX2                !
 ! R90   R(73,76)                1.0941         estimate D2E/DX2                !
 ! R91   R(77,78)                1.093          estimate D2E/DX2                !
 ! R92   R(77,79)                1.0946         estimate D2E/DX2                !
 ! R93   R(77,80)                1.0929         estimate D2E/DX2                !
 ! R94   R(81,82)                1.0929         estimate D2E/DX2                !
 ! R95   R(81,83)                1.0947         estimate D2E/DX2                !
 ! R96   R(81,84)                1.0937         estimate D2E/DX2                !
 ! R97   R(85,86)                1.5276         estimate D2E/DX2                !
 ! R98   R(85,90)                1.5366         estimate D2E/DX2                !
 ! R99   R(85,94)                1.5354         estimate D2E/DX2                !
 ! R100  R(86,87)                1.0939         estimate D2E/DX2                !
 ! R101  R(86,88)                1.0936         estimate D2E/DX2                !
 ! R102  R(86,89)                1.0937         estimate D2E/DX2                !
 ! R103  R(90,91)                1.0929         estimate D2E/DX2                !
 ! R104  R(90,92)                1.0946         estimate D2E/DX2                !
 ! R105  R(90,93)                1.094          estimate D2E/DX2                !
 ! R106  R(94,95)                1.0937         estimate D2E/DX2                !
 ! R107  R(94,96)                1.0946         estimate D2E/DX2                !
 ! R108  R(94,97)                1.0929         estimate D2E/DX2                !
 ! R109  R(98,99)                1.4183         estimate D2E/DX2                !
 ! R110  R(98,106)               1.4198         estimate D2E/DX2                !
 ! R111  R(99,100)               1.0865         estimate D2E/DX2                !
 ! R112  R(99,101)               1.3714         estimate D2E/DX2                !
 ! R113  R(101,102)              1.0833         estimate D2E/DX2                !
 ! R114  R(101,103)              1.4227         estimate D2E/DX2                !
 ! R115  R(103,104)              1.4151         estimate D2E/DX2                !
 ! R116  R(103,108)              1.429          estimate D2E/DX2                !
 ! R117  R(104,105)              1.0828         estimate D2E/DX2                !
 ! R118  R(104,106)              1.373          estimate D2E/DX2                !
 ! R119  R(106,107)              1.0853         estimate D2E/DX2                !
 ! R120  R(109,111)              1.4816         estimate D2E/DX2                !
 ! R121  R(110,122)              1.4801         estimate D2E/DX2                !
 ! R122  R(111,112)              1.3975         estimate D2E/DX2                !
 ! R123  R(111,120)              1.3963         estimate D2E/DX2                !
 ! R124  R(112,113)              1.0836         estimate D2E/DX2                !
 ! R125  R(112,114)              1.387          estimate D2E/DX2                !
 ! R126  R(114,115)              1.0853         estimate D2E/DX2                !
 ! R127  R(114,116)              1.3926         estimate D2E/DX2                !
 ! R128  R(116,117)              1.0852         estimate D2E/DX2                !
 ! R129  R(116,118)              1.3906         estimate D2E/DX2                !
 ! R130  R(118,119)              1.0853         estimate D2E/DX2                !
 ! R131  R(118,120)              1.3887         estimate D2E/DX2                !
 ! R132  R(120,121)              1.0832         estimate D2E/DX2                !
 ! R133  R(122,123)              1.3954         estimate D2E/DX2                !
 ! R134  R(122,131)              1.3975         estimate D2E/DX2                !
 ! R135  R(123,124)              1.0834         estimate D2E/DX2                !
 ! R136  R(123,125)              1.3894         estimate D2E/DX2                !
 ! R137  R(125,126)              1.0853         estimate D2E/DX2                !
 ! R138  R(125,127)              1.3904         estimate D2E/DX2                !
 ! R139  R(127,128)              1.0852         estimate D2E/DX2                !
 ! R140  R(127,129)              1.3934         estimate D2E/DX2                !
 ! R141  R(129,130)              1.0857         estimate D2E/DX2                !
 ! R142  R(129,131)              1.3865         estimate D2E/DX2                !
 ! R143  R(131,132)              1.0184         estimate D2E/DX2                !
 ! A1    A(6,1,27)             102.6726         estimate D2E/DX2                !
 ! A2    A(6,1,37)             101.8004         estimate D2E/DX2                !
 ! A3    A(27,1,29)             77.8279         estimate D2E/DX2                !
 ! A4    A(27,1,37)            155.5193         estimate D2E/DX2                !
 ! A5    A(29,1,37)             77.7056         estimate D2E/DX2                !
 ! A6    A(20,2,23)            124.1243         estimate D2E/DX2                !
 ! A7    A(20,2,27)            124.7395         estimate D2E/DX2                !
 ! A8    A(23,2,27)            111.0686         estimate D2E/DX2                !
 ! A9    A(25,3,27)            111.7085         estimate D2E/DX2                !
 ! A10   A(25,3,28)            131.4942         estimate D2E/DX2                !
 ! A11   A(27,3,28)            116.7957         estimate D2E/DX2                !
 ! A12   A(30,4,37)            116.5485         estimate D2E/DX2                !
 ! A13   A(30,4,38)            131.5274         estimate D2E/DX2                !
 ! A14   A(37,4,38)            111.4836         estimate D2E/DX2                !
 ! A15   A(37,5,40)            111.1262         estimate D2E/DX2                !
 ! A16   A(37,5,42)            124.3863         estimate D2E/DX2                !
 ! A17   A(40,5,42)            124.4875         estimate D2E/DX2                !
 ! A18   A(1,6,63)             122.5173         estimate D2E/DX2                !
 ! A19   A(1,6,64)             130.3562         estimate D2E/DX2                !
 ! A20   A(63,6,64)            106.6419         estimate D2E/DX2                !
 ! A21   A(108,7,110)          116.2164         estimate D2E/DX2                !
 ! A22   A(109,8,110)          114.0136         estimate D2E/DX2                !
 ! A23   A(108,9,109)          115.8104         estimate D2E/DX2                !
 ! A24   A(11,10,12)           107.7044         estimate D2E/DX2                !
 ! A25   A(11,10,13)           107.9156         estimate D2E/DX2                !
 ! A26   A(11,10,14)           110.5867         estimate D2E/DX2                !
 ! A27   A(12,10,13)           107.8006         estimate D2E/DX2                !
 ! A28   A(12,10,14)           111.4191         estimate D2E/DX2                !
 ! A29   A(13,10,14)           111.2579         estimate D2E/DX2                !
 ! A30   A(10,14,15)           110.004          estimate D2E/DX2                !
 ! A31   A(10,14,16)           109.4494         estimate D2E/DX2                !
 ! A32   A(10,14,17)           112.16           estimate D2E/DX2                !
 ! A33   A(15,14,16)           106.3876         estimate D2E/DX2                !
 ! A34   A(15,14,17)           109.6043         estimate D2E/DX2                !
 ! A35   A(16,14,17)           109.0638         estimate D2E/DX2                !
 ! A36   A(14,17,18)           109.6765         estimate D2E/DX2                !
 ! A37   A(14,17,19)           110.2713         estimate D2E/DX2                !
 ! A38   A(14,17,20)           112.095          estimate D2E/DX2                !
 ! A39   A(18,17,19)           106.8557         estimate D2E/DX2                !
 ! A40   A(18,17,20)           108.3842         estimate D2E/DX2                !
 ! A41   A(19,17,20)           109.4015         estimate D2E/DX2                !
 ! A42   A(2,20,17)            112.1824         estimate D2E/DX2                !
 ! A43   A(2,20,21)            108.1672         estimate D2E/DX2                !
 ! A44   A(2,20,22)            107.0843         estimate D2E/DX2                !
 ! A45   A(17,20,21)           110.6162         estimate D2E/DX2                !
 ! A46   A(17,20,22)           111.0547         estimate D2E/DX2                !
 ! A47   A(21,20,22)           107.5401         estimate D2E/DX2                !
 ! A48   A(2,23,24)            121.9402         estimate D2E/DX2                !
 ! A49   A(2,23,25)            107.2715         estimate D2E/DX2                !
 ! A50   A(24,23,25)           130.7869         estimate D2E/DX2                !
 ! A51   A(3,25,23)            105.8067         estimate D2E/DX2                !
 ! A52   A(3,25,26)            123.1218         estimate D2E/DX2                !
 ! A53   A(23,25,26)           131.0609         estimate D2E/DX2                !
 ! A54   A(1,27,2)             141.8519         estimate D2E/DX2                !
 ! A55   A(1,27,3)             113.8285         estimate D2E/DX2                !
 ! A56   A(2,27,3)             104.1349         estimate D2E/DX2                !
 ! A57   A(3,28,29)            111.0183         estimate D2E/DX2                !
 ! A58   A(3,28,35)            127.3983         estimate D2E/DX2                !
 ! A59   A(29,28,35)           121.5798         estimate D2E/DX2                !
 ! A60   A(1,29,28)            120.1714         estimate D2E/DX2                !
 ! A61   A(1,29,30)            120.5198         estimate D2E/DX2                !
 ! A62   A(28,29,30)           119.0031         estimate D2E/DX2                !
 ! A63   A(4,30,29)            110.976          estimate D2E/DX2                !
 ! A64   A(4,30,31)            127.2966         estimate D2E/DX2                !
 ! A65   A(29,30,31)           121.6412         estimate D2E/DX2                !
 ! A66   A(30,31,32)           122.0402         estimate D2E/DX2                !
 ! A67   A(30,31,33)           117.8495         estimate D2E/DX2                !
 ! A68   A(32,31,33)           120.0595         estimate D2E/DX2                !
 ! A69   A(31,33,34)           118.9915         estimate D2E/DX2                !
 ! A70   A(31,33,35)           121.9547         estimate D2E/DX2                !
 ! A71   A(34,33,35)           119.0044         estimate D2E/DX2                !
 ! A72   A(28,35,33)           117.9081         estimate D2E/DX2                !
 ! A73   A(28,35,36)           121.9001         estimate D2E/DX2                !
 ! A74   A(33,35,36)           120.1767         estimate D2E/DX2                !
 ! A75   A(1,37,4)             114.2375         estimate D2E/DX2                !
 ! A76   A(1,37,5)             140.7746         estimate D2E/DX2                !
 ! A77   A(4,37,5)             104.25           estimate D2E/DX2                !
 ! A78   A(4,38,39)            123.0026         estimate D2E/DX2                !
 ! A79   A(4,38,40)            106.059          estimate D2E/DX2                !
 ! A80   A(39,38,40)           130.9313         estimate D2E/DX2                !
 ! A81   A(5,40,38)            107.0786         estimate D2E/DX2                !
 ! A82   A(5,40,41)            122.2093         estimate D2E/DX2                !
 ! A83   A(38,40,41)           130.7113         estimate D2E/DX2                !
 ! A84   A(5,42,43)            108.1808         estimate D2E/DX2                !
 ! A85   A(5,42,44)            106.3411         estimate D2E/DX2                !
 ! A86   A(5,42,45)            112.7234         estimate D2E/DX2                !
 ! A87   A(43,42,44)           107.8395         estimate D2E/DX2                !
 ! A88   A(43,42,45)           110.8559         estimate D2E/DX2                !
 ! A89   A(44,42,45)           110.6735         estimate D2E/DX2                !
 ! A90   A(42,45,46)           109.7474         estimate D2E/DX2                !
 ! A91   A(42,45,47)           108.8058         estimate D2E/DX2                !
 ! A92   A(42,45,48)           111.7001         estimate D2E/DX2                !
 ! A93   A(46,45,47)           106.9151         estimate D2E/DX2                !
 ! A94   A(46,45,48)           109.9877         estimate D2E/DX2                !
 ! A95   A(47,45,48)           109.5588         estimate D2E/DX2                !
 ! A96   A(45,48,49)           108.8552         estimate D2E/DX2                !
 ! A97   A(45,48,50)           109.5558         estimate D2E/DX2                !
 ! A98   A(45,48,51)           112.2755         estimate D2E/DX2                !
 ! A99   A(49,48,50)           106.5132         estimate D2E/DX2                !
 ! A100  A(49,48,51)           109.7773         estimate D2E/DX2                !
 ! A101  A(50,48,51)           109.6939         estimate D2E/DX2                !
 ! A102  A(48,51,52)           111.4097         estimate D2E/DX2                !
 ! A103  A(48,51,53)           110.8297         estimate D2E/DX2                !
 ! A104  A(48,51,54)           111.1925         estimate D2E/DX2                !
 ! A105  A(52,51,53)           107.6984         estimate D2E/DX2                !
 ! A106  A(52,51,54)           107.7583         estimate D2E/DX2                !
 ! A107  A(53,51,54)           107.7865         estimate D2E/DX2                !
 ! A108  A(56,55,57)           121.717          estimate D2E/DX2                !
 ! A109  A(56,55,63)           120.197          estimate D2E/DX2                !
 ! A110  A(57,55,63)           118.0777         estimate D2E/DX2                !
 ! A111  A(55,57,58)           118.3529         estimate D2E/DX2                !
 ! A112  A(55,57,59)           122.4813         estimate D2E/DX2                !
 ! A113  A(58,57,59)           119.155          estimate D2E/DX2                !
 ! A114  A(57,59,60)           118.67           estimate D2E/DX2                !
 ! A115  A(57,59,72)           119.1957         estimate D2E/DX2                !
 ! A116  A(60,59,72)           122.0892         estimate D2E/DX2                !
 ! A117  A(59,60,61)           120.4909         estimate D2E/DX2                !
 ! A118  A(59,60,62)           119.8358         estimate D2E/DX2                !
 ! A119  A(61,60,62)           119.6592         estimate D2E/DX2                !
 ! A120  A(60,62,63)           120.3843         estimate D2E/DX2                !
 ! A121  A(60,62,65)           134.1222         estimate D2E/DX2                !
 ! A122  A(63,62,65)           105.3565         estimate D2E/DX2                !
 ! A123  A(6,63,55)            128.1204         estimate D2E/DX2                !
 ! A124  A(6,63,62)            111.2816         estimate D2E/DX2                !
 ! A125  A(55,63,62)           120.5467         estimate D2E/DX2                !
 ! A126  A(6,64,65)            111.1103         estimate D2E/DX2                !
 ! A127  A(6,64,71)            127.3225         estimate D2E/DX2                !
 ! A128  A(65,64,71)           120.8871         estimate D2E/DX2                !
 ! A129  A(62,65,64)           105.5141         estimate D2E/DX2                !
 ! A130  A(62,65,66)           132.8853         estimate D2E/DX2                !
 ! A131  A(64,65,66)           120.9023         estimate D2E/DX2                !
 ! A132  A(65,66,67)           120.2802         estimate D2E/DX2                !
 ! A133  A(65,66,68)           119.3235         estimate D2E/DX2                !
 ! A134  A(67,66,68)           120.2998         estimate D2E/DX2                !
 ! A135  A(66,68,69)           119.3363         estimate D2E/DX2                !
 ! A136  A(66,68,85)           118.4149         estimate D2E/DX2                !
 ! A137  A(69,68,85)           122.2488         estimate D2E/DX2                !
 ! A138  A(68,69,70)           119.7654         estimate D2E/DX2                !
 ! A139  A(68,69,71)           123.3513         estimate D2E/DX2                !
 ! A140  A(70,69,71)           116.777          estimate D2E/DX2                !
 ! A141  A(64,71,69)           115.8949         estimate D2E/DX2                !
 ! A142  A(64,71,98)           121.323          estimate D2E/DX2                !
 ! A143  A(69,71,98)           122.6979         estimate D2E/DX2                !
 ! A144  A(59,72,73)           112.2541         estimate D2E/DX2                !
 ! A145  A(59,72,77)           109.909          estimate D2E/DX2                !
 ! A146  A(59,72,81)           108.8308         estimate D2E/DX2                !
 ! A147  A(73,72,77)           108.178          estimate D2E/DX2                !
 ! A148  A(73,72,81)           108.2545         estimate D2E/DX2                !
 ! A149  A(77,72,81)           109.3661         estimate D2E/DX2                !
 ! A150  A(72,73,74)           111.7654         estimate D2E/DX2                !
 ! A151  A(72,73,75)           109.4191         estimate D2E/DX2                !
 ! A152  A(72,73,76)           111.7156         estimate D2E/DX2                !
 ! A153  A(74,73,75)           107.5831         estimate D2E/DX2                !
 ! A154  A(74,73,76)           108.4814         estimate D2E/DX2                !
 ! A155  A(75,73,76)           107.7089         estimate D2E/DX2                !
 ! A156  A(72,77,78)           110.8054         estimate D2E/DX2                !
 ! A157  A(72,77,79)           109.9974         estimate D2E/DX2                !
 ! A158  A(72,77,80)           111.8872         estimate D2E/DX2                !
 ! A159  A(78,77,79)           108.2712         estimate D2E/DX2                !
 ! A160  A(78,77,80)           107.9773         estimate D2E/DX2                !
 ! A161  A(79,77,80)           107.7757         estimate D2E/DX2                !
 ! A162  A(72,81,82)           111.6808         estimate D2E/DX2                !
 ! A163  A(72,81,83)           110.0748         estimate D2E/DX2                !
 ! A164  A(72,81,84)           110.7921         estimate D2E/DX2                !
 ! A165  A(82,81,83)           107.9479         estimate D2E/DX2                !
 ! A166  A(82,81,84)           107.915          estimate D2E/DX2                !
 ! A167  A(83,81,84)           108.3128         estimate D2E/DX2                !
 ! A168  A(68,85,86)           112.602          estimate D2E/DX2                !
 ! A169  A(68,85,90)           108.7774         estimate D2E/DX2                !
 ! A170  A(68,85,94)           109.2318         estimate D2E/DX2                !
 ! A171  A(86,85,90)           108.2737         estimate D2E/DX2                !
 ! A172  A(86,85,94)           108.3994         estimate D2E/DX2                !
 ! A173  A(90,85,94)           109.5181         estimate D2E/DX2                !
 ! A174  A(85,86,87)           111.7052         estimate D2E/DX2                !
 ! A175  A(85,86,88)           109.3949         estimate D2E/DX2                !
 ! A176  A(85,86,89)           111.7437         estimate D2E/DX2                !
 ! A177  A(87,86,88)           107.7053         estimate D2E/DX2                !
 ! A178  A(87,86,89)           108.4022         estimate D2E/DX2                !
 ! A179  A(88,86,89)           107.7287         estimate D2E/DX2                !
 ! A180  A(85,90,91)           111.927          estimate D2E/DX2                !
 ! A181  A(85,90,92)           110.0081         estimate D2E/DX2                !
 ! A182  A(85,90,93)           110.6816         estimate D2E/DX2                !
 ! A183  A(91,90,92)           107.882          estimate D2E/DX2                !
 ! A184  A(91,90,93)           107.9464         estimate D2E/DX2                !
 ! A185  A(92,90,93)           108.2732         estimate D2E/DX2                !
 ! A186  A(85,94,95)           110.6901         estimate D2E/DX2                !
 ! A187  A(85,94,96)           110.0198         estimate D2E/DX2                !
 ! A188  A(85,94,97)           111.8809         estimate D2E/DX2                !
 ! A189  A(95,94,96)           108.2785         estimate D2E/DX2                !
 ! A190  A(95,94,97)           107.9681         estimate D2E/DX2                !
 ! A191  A(96,94,97)           107.8822         estimate D2E/DX2                !
 ! A192  A(71,98,99)           122.0132         estimate D2E/DX2                !
 ! A193  A(71,98,106)          120.4057         estimate D2E/DX2                !
 ! A194  A(99,98,106)          117.3393         estimate D2E/DX2                !
 ! A195  A(98,99,100)          119.0537         estimate D2E/DX2                !
 ! A196  A(98,99,101)          121.0171         estimate D2E/DX2                !
 ! A197  A(100,99,101)         119.6434         estimate D2E/DX2                !
 ! A198  A(99,101,102)         120.5814         estimate D2E/DX2                !
 ! A199  A(99,101,103)         121.0909         estimate D2E/DX2                !
 ! A200  A(102,101,103)        118.3            estimate D2E/DX2                !
 ! A201  A(101,103,104)        117.5899         estimate D2E/DX2                !
 ! A202  A(101,103,108)        122.1962         estimate D2E/DX2                !
 ! A203  A(104,103,108)        120.0307         estimate D2E/DX2                !
 ! A204  A(103,104,105)        118.4365         estimate D2E/DX2                !
 ! A205  A(103,104,106)        120.7423         estimate D2E/DX2                !
 ! A206  A(105,104,106)        120.6684         estimate D2E/DX2                !
 ! A207  A(98,106,104)         121.4031         estimate D2E/DX2                !
 ! A208  A(98,106,107)         118.678          estimate D2E/DX2                !
 ! A209  A(104,106,107)        119.8209         estimate D2E/DX2                !
 ! A210  A(7,108,9)            122.5612         estimate D2E/DX2                !
 ! A211  A(7,108,103)          118.2265         estimate D2E/DX2                !
 ! A212  A(9,108,103)          119.0876         estimate D2E/DX2                !
 ! A213  A(8,109,9)            125.8038         estimate D2E/DX2                !
 ! A214  A(8,109,111)          116.926          estimate D2E/DX2                !
 ! A215  A(9,109,111)          117.2443         estimate D2E/DX2                !
 ! A216  A(7,110,8)            125.5562         estimate D2E/DX2                !
 ! A217  A(7,110,122)          117.0854         estimate D2E/DX2                !
 ! A218  A(8,110,122)          117.3269         estimate D2E/DX2                !
 ! A219  A(109,111,112)        120.4899         estimate D2E/DX2                !
 ! A220  A(109,111,120)        120.4041         estimate D2E/DX2                !
 ! A221  A(112,111,120)        119.0992         estimate D2E/DX2                !
 ! A222  A(111,112,113)        118.255          estimate D2E/DX2                !
 ! A223  A(111,112,114)        120.4275         estimate D2E/DX2                !
 ! A224  A(113,112,114)        121.3175         estimate D2E/DX2                !
 ! A225  A(112,114,115)        119.8496         estimate D2E/DX2                !
 ! A226  A(112,114,116)        120.1796         estimate D2E/DX2                !
 ! A227  A(115,114,116)        119.9706         estimate D2E/DX2                !
 ! A228  A(114,116,117)        120.1446         estimate D2E/DX2                !
 ! A229  A(114,116,118)        119.6909         estimate D2E/DX2                !
 ! A230  A(117,116,118)        120.1644         estimate D2E/DX2                !
 ! A231  A(116,118,119)        119.9868         estimate D2E/DX2                !
 ! A232  A(116,118,120)        120.2071         estimate D2E/DX2                !
 ! A233  A(119,118,120)        119.806          estimate D2E/DX2                !
 ! A234  A(111,120,118)        120.3957         estimate D2E/DX2                !
 ! A235  A(111,120,121)        118.3066         estimate D2E/DX2                !
 ! A236  A(118,120,121)        121.2977         estimate D2E/DX2                !
 ! A237  A(110,122,123)        120.5943         estimate D2E/DX2                !
 ! A238  A(110,122,131)        120.273          estimate D2E/DX2                !
 ! A239  A(123,122,131)        119.0995         estimate D2E/DX2                !
 ! A240  A(122,123,124)        118.3511         estimate D2E/DX2                !
 ! A241  A(122,123,125)        120.3943         estimate D2E/DX2                !
 ! A242  A(124,123,125)        121.2532         estimate D2E/DX2                !
 ! A243  A(123,125,126)        119.8033         estimate D2E/DX2                !
 ! A244  A(123,125,127)        120.2255         estimate D2E/DX2                !
 ! A245  A(126,125,127)        119.9712         estimate D2E/DX2                !
 ! A246  A(125,127,128)        120.1657         estimate D2E/DX2                !
 ! A247  A(125,127,129)        119.6428         estimate D2E/DX2                !
 ! A248  A(128,127,129)        120.1909         estimate D2E/DX2                !
 ! A249  A(127,129,130)        119.9846         estimate D2E/DX2                !
 ! A250  A(127,129,131)        120.1809         estimate D2E/DX2                !
 ! A251  A(130,129,131)        119.8342         estimate D2E/DX2                !
 ! A252  A(122,131,129)        120.4549         estimate D2E/DX2                !
 ! A253  A(122,131,132)        112.786          estimate D2E/DX2                !
 ! A254  A(129,131,132)        125.1646         estimate D2E/DX2                !
 ! A255  L(6,1,29,27,-1)       180.5004         estimate D2E/DX2                !
 ! A256  L(6,1,29,27,-2)       179.485          estimate D2E/DX2                !
 ! D1    D(27,1,6,63)         -108.159          estimate D2E/DX2                !
 ! D2    D(27,1,6,64)           62.7375         estimate D2E/DX2                !
 ! D3    D(37,1,6,63)           72.4593         estimate D2E/DX2                !
 ! D4    D(37,1,6,64)         -116.6442         estimate D2E/DX2                !
 ! D5    D(6,1,27,2)            -1.2282         estimate D2E/DX2                !
 ! D6    D(6,1,27,3)          -175.1997         estimate D2E/DX2                !
 ! D7    D(29,1,27,2)          179.2869         estimate D2E/DX2                !
 ! D8    D(29,1,27,3)            5.3153         estimate D2E/DX2                !
 ! D9    D(37,1,27,2)          177.3113         estimate D2E/DX2                !
 ! D10   D(37,1,27,3)            3.3397         estimate D2E/DX2                !
 ! D11   D(27,1,29,28)          -4.8795         estimate D2E/DX2                !
 ! D12   D(27,1,29,30)        -178.4678         estimate D2E/DX2                !
 ! D13   D(37,1,29,28)         174.2828         estimate D2E/DX2                !
 ! D14   D(37,1,29,30)           0.6945         estimate D2E/DX2                !
 ! D15   D(6,1,37,4)           179.5212         estimate D2E/DX2                !
 ! D16   D(6,1,37,5)            11.4549         estimate D2E/DX2                !
 ! D17   D(27,1,37,4)            0.9769         estimate D2E/DX2                !
 ! D18   D(27,1,37,5)         -167.0894         estimate D2E/DX2                !
 ! D19   D(29,1,37,4)           -0.9996         estimate D2E/DX2                !
 ! D20   D(29,1,37,5)         -169.0659         estimate D2E/DX2                !
 ! D21   D(23,2,20,17)        -107.4018         estimate D2E/DX2                !
 ! D22   D(23,2,20,21)         130.3223         estimate D2E/DX2                !
 ! D23   D(23,2,20,22)          14.6845         estimate D2E/DX2                !
 ! D24   D(27,2,20,17)          69.3378         estimate D2E/DX2                !
 ! D25   D(27,2,20,21)         -52.9381         estimate D2E/DX2                !
 ! D26   D(27,2,20,22)        -168.5759         estimate D2E/DX2                !
 ! D27   D(20,2,23,24)          -3.4415         estimate D2E/DX2                !
 ! D28   D(20,2,23,25)         176.9513         estimate D2E/DX2                !
 ! D29   D(27,2,23,24)         179.4293         estimate D2E/DX2                !
 ! D30   D(27,2,23,25)          -0.1779         estimate D2E/DX2                !
 ! D31   D(20,2,27,1)            9.2982         estimate D2E/DX2                !
 ! D32   D(20,2,27,3)         -176.3874         estimate D2E/DX2                !
 ! D33   D(23,2,27,1)         -173.5939         estimate D2E/DX2                !
 ! D34   D(23,2,27,3)            0.7205         estimate D2E/DX2                !
 ! D35   D(27,3,25,23)           0.9353         estimate D2E/DX2                !
 ! D36   D(27,3,25,26)        -177.9951         estimate D2E/DX2                !
 ! D37   D(28,3,25,23)        -178.5817         estimate D2E/DX2                !
 ! D38   D(28,3,25,26)           2.4879         estimate D2E/DX2                !
 ! D39   D(25,3,27,1)          175.1416         estimate D2E/DX2                !
 ! D40   D(25,3,27,2)           -1.0226         estimate D2E/DX2                !
 ! D41   D(28,3,27,1)           -5.2637         estimate D2E/DX2                !
 ! D42   D(28,3,27,2)          178.5721         estimate D2E/DX2                !
 ! D43   D(25,3,28,29)        -179.0583         estimate D2E/DX2                !
 ! D44   D(25,3,28,35)           0.2558         estimate D2E/DX2                !
 ! D45   D(27,3,28,29)           1.4444         estimate D2E/DX2                !
 ! D46   D(27,3,28,35)        -179.2415         estimate D2E/DX2                !
 ! D47   D(37,4,30,29)          -0.6402         estimate D2E/DX2                !
 ! D48   D(37,4,30,31)        -177.2768         estimate D2E/DX2                !
 ! D49   D(38,4,30,29)         170.9842         estimate D2E/DX2                !
 ! D50   D(38,4,30,31)          -5.6524         estimate D2E/DX2                !
 ! D51   D(30,4,37,1)            1.1976         estimate D2E/DX2                !
 ! D52   D(30,4,37,5)          173.444          estimate D2E/DX2                !
 ! D53   D(38,4,37,1)         -172.0724         estimate D2E/DX2                !
 ! D54   D(38,4,37,5)            0.174          estimate D2E/DX2                !
 ! D55   D(30,4,38,39)           6.7386         estimate D2E/DX2                !
 ! D56   D(30,4,38,40)        -172.3881         estimate D2E/DX2                !
 ! D57   D(37,4,38,39)         178.6889         estimate D2E/DX2                !
 ! D58   D(37,4,38,40)          -0.4379         estimate D2E/DX2                !
 ! D59   D(40,5,37,1)          168.9402         estimate D2E/DX2                !
 ! D60   D(40,5,37,4)            0.1579         estimate D2E/DX2                !
 ! D61   D(42,5,37,1)          -11.0092         estimate D2E/DX2                !
 ! D62   D(42,5,37,4)         -179.7914         estimate D2E/DX2                !
 ! D63   D(37,5,40,38)          -0.4314         estimate D2E/DX2                !
 ! D64   D(37,5,40,41)         179.8654         estimate D2E/DX2                !
 ! D65   D(42,5,40,38)         179.5178         estimate D2E/DX2                !
 ! D66   D(42,5,40,41)          -0.1853         estimate D2E/DX2                !
 ! D67   D(37,5,42,43)         127.5938         estimate D2E/DX2                !
 ! D68   D(37,5,42,44)          11.9793         estimate D2E/DX2                !
 ! D69   D(37,5,42,45)        -109.4638         estimate D2E/DX2                !
 ! D70   D(40,5,42,43)         -52.3488         estimate D2E/DX2                !
 ! D71   D(40,5,42,44)        -167.9633         estimate D2E/DX2                !
 ! D72   D(40,5,42,45)          70.5935         estimate D2E/DX2                !
 ! D73   D(1,6,63,55)           -5.3371         estimate D2E/DX2                !
 ! D74   D(1,6,63,62)          172.0358         estimate D2E/DX2                !
 ! D75   D(64,6,63,55)        -178.1079         estimate D2E/DX2                !
 ! D76   D(64,6,63,62)          -0.735          estimate D2E/DX2                !
 ! D77   D(1,6,64,65)         -169.4923         estimate D2E/DX2                !
 ! D78   D(1,6,64,71)            1.0186         estimate D2E/DX2                !
 ! D79   D(63,6,64,65)           2.5034         estimate D2E/DX2                !
 ! D80   D(63,6,64,71)         173.0143         estimate D2E/DX2                !
 ! D81   D(110,7,108,9)          2.0799         estimate D2E/DX2                !
 ! D82   D(110,7,108,103)     -173.8199         estimate D2E/DX2                !
 ! D83   D(108,7,110,8)         -0.6553         estimate D2E/DX2                !
 ! D84   D(108,7,110,122)      177.2422         estimate D2E/DX2                !
 ! D85   D(110,8,109,9)          0.018          estimate D2E/DX2                !
 ! D86   D(110,8,109,111)      178.1048         estimate D2E/DX2                !
 ! D87   D(109,8,110,7)         -0.3552         estimate D2E/DX2                !
 ! D88   D(109,8,110,122)     -178.2481         estimate D2E/DX2                !
 ! D89   D(109,9,108,7)         -2.3611         estimate D2E/DX2                !
 ! D90   D(109,9,108,103)      173.5048         estimate D2E/DX2                !
 ! D91   D(108,9,109,8)          1.277          estimate D2E/DX2                !
 ! D92   D(108,9,109,111)     -176.8044         estimate D2E/DX2                !
 ! D93   D(11,10,14,15)        178.1694         estimate D2E/DX2                !
 ! D94   D(11,10,14,16)         61.6198         estimate D2E/DX2                !
 ! D95   D(11,10,14,17)        -59.5673         estimate D2E/DX2                !
 ! D96   D(12,10,14,15)         58.4142         estimate D2E/DX2                !
 ! D97   D(12,10,14,16)        -58.1354         estimate D2E/DX2                !
 ! D98   D(12,10,14,17)       -179.3225         estimate D2E/DX2                !
 ! D99   D(13,10,14,15)        -61.9154         estimate D2E/DX2                !
 ! D100  D(13,10,14,16)       -178.465          estimate D2E/DX2                !
 ! D101  D(13,10,14,17)         60.3479         estimate D2E/DX2                !
 ! D102  D(10,14,17,18)         54.5504         estimate D2E/DX2                !
 ! D103  D(10,14,17,19)        -62.8591         estimate D2E/DX2                !
 ! D104  D(10,14,17,20)        174.9919         estimate D2E/DX2                !
 ! D105  D(15,14,17,18)        177.0407         estimate D2E/DX2                !
 ! D106  D(15,14,17,19)         59.6312         estimate D2E/DX2                !
 ! D107  D(15,14,17,20)        -62.5178         estimate D2E/DX2                !
 ! D108  D(16,14,17,18)        -66.8582         estimate D2E/DX2                !
 ! D109  D(16,14,17,19)        175.7323         estimate D2E/DX2                !
 ! D110  D(16,14,17,20)         53.5833         estimate D2E/DX2                !
 ! D111  D(14,17,20,2)        -178.5179         estimate D2E/DX2                !
 ! D112  D(14,17,20,21)        -57.6447         estimate D2E/DX2                !
 ! D113  D(14,17,20,22)         61.6859         estimate D2E/DX2                !
 ! D114  D(18,17,20,2)         -57.3291         estimate D2E/DX2                !
 ! D115  D(18,17,20,21)         63.544          estimate D2E/DX2                !
 ! D116  D(18,17,20,22)       -177.1253         estimate D2E/DX2                !
 ! D117  D(19,17,20,2)          58.8386         estimate D2E/DX2                !
 ! D118  D(19,17,20,21)        179.7118         estimate D2E/DX2                !
 ! D119  D(19,17,20,22)        -60.9575         estimate D2E/DX2                !
 ! D120  D(2,23,25,3)           -0.4479         estimate D2E/DX2                !
 ! D121  D(2,23,25,26)         178.364          estimate D2E/DX2                !
 ! D122  D(24,23,25,3)         179.9923         estimate D2E/DX2                !
 ! D123  D(24,23,25,26)         -1.1957         estimate D2E/DX2                !
 ! D124  D(3,28,29,1)            3.4604         estimate D2E/DX2                !
 ! D125  D(3,28,29,30)         177.1454         estimate D2E/DX2                !
 ! D126  D(35,28,29,1)        -175.9            estimate D2E/DX2                !
 ! D127  D(35,28,29,30)         -2.215          estimate D2E/DX2                !
 ! D128  D(3,28,35,33)        -179.1408         estimate D2E/DX2                !
 ! D129  D(3,28,35,36)          -0.5545         estimate D2E/DX2                !
 ! D130  D(29,28,35,33)          0.1077         estimate D2E/DX2                !
 ! D131  D(29,28,35,36)        178.694          estimate D2E/DX2                !
 ! D132  D(1,29,30,4)           -0.2643         estimate D2E/DX2                !
 ! D133  D(1,29,30,31)         176.5931         estimate D2E/DX2                !
 ! D134  D(28,29,30,4)        -173.9267         estimate D2E/DX2                !
 ! D135  D(28,29,30,31)          2.9307         estimate D2E/DX2                !
 ! D136  D(4,30,31,32)          -2.5878         estimate D2E/DX2                !
 ! D137  D(4,30,31,33)         174.8214         estimate D2E/DX2                !
 ! D138  D(29,30,31,32)       -178.8984         estimate D2E/DX2                !
 ! D139  D(29,30,31,33)         -1.4892         estimate D2E/DX2                !
 ! D140  D(30,31,33,34)       -178.1276         estimate D2E/DX2                !
 ! D141  D(30,31,33,35)         -0.709          estimate D2E/DX2                !
 ! D142  D(32,31,33,34)         -0.665          estimate D2E/DX2                !
 ! D143  D(32,31,33,35)        176.7536         estimate D2E/DX2                !
 ! D144  D(31,33,35,28)          1.3819         estimate D2E/DX2                !
 ! D145  D(31,33,35,36)       -177.2299         estimate D2E/DX2                !
 ! D146  D(34,33,35,28)        178.8002         estimate D2E/DX2                !
 ! D147  D(34,33,35,36)          0.1884         estimate D2E/DX2                !
 ! D148  D(4,38,40,5)            0.5099         estimate D2E/DX2                !
 ! D149  D(4,38,40,41)        -179.8215         estimate D2E/DX2                !
 ! D150  D(39,38,40,5)        -178.5208         estimate D2E/DX2                !
 ! D151  D(39,38,40,41)          1.1478         estimate D2E/DX2                !
 ! D152  D(5,42,45,46)         -64.9763         estimate D2E/DX2                !
 ! D153  D(5,42,45,47)          51.6915         estimate D2E/DX2                !
 ! D154  D(5,42,45,48)         172.7655         estimate D2E/DX2                !
 ! D155  D(43,42,45,46)         56.4594         estimate D2E/DX2                !
 ! D156  D(43,42,45,47)        173.1272         estimate D2E/DX2                !
 ! D157  D(43,42,45,48)        -65.7988         estimate D2E/DX2                !
 ! D158  D(44,42,45,46)        176.0734         estimate D2E/DX2                !
 ! D159  D(44,42,45,47)        -67.2588         estimate D2E/DX2                !
 ! D160  D(44,42,45,48)         53.8152         estimate D2E/DX2                !
 ! D161  D(42,45,48,49)        -62.7931         estimate D2E/DX2                !
 ! D162  D(42,45,48,50)         53.3138         estimate D2E/DX2                !
 ! D163  D(42,45,48,51)        175.4525         estimate D2E/DX2                !
 ! D164  D(46,45,48,49)        175.0866         estimate D2E/DX2                !
 ! D165  D(46,45,48,50)        -68.8065         estimate D2E/DX2                !
 ! D166  D(46,45,48,51)         53.3323         estimate D2E/DX2                !
 ! D167  D(47,45,48,49)         57.8423         estimate D2E/DX2                !
 ! D168  D(47,45,48,50)        173.9492         estimate D2E/DX2                !
 ! D169  D(47,45,48,51)        -63.912          estimate D2E/DX2                !
 ! D170  D(45,48,51,52)        178.5248         estimate D2E/DX2                !
 ! D171  D(45,48,51,53)         58.6208         estimate D2E/DX2                !
 ! D172  D(45,48,51,54)        -61.2503         estimate D2E/DX2                !
 ! D173  D(49,48,51,52)         57.2982         estimate D2E/DX2                !
 ! D174  D(49,48,51,53)        -62.6059         estimate D2E/DX2                !
 ! D175  D(49,48,51,54)        177.523          estimate D2E/DX2                !
 ! D176  D(50,48,51,52)        -59.4149         estimate D2E/DX2                !
 ! D177  D(50,48,51,53)       -179.3189         estimate D2E/DX2                !
 ! D178  D(50,48,51,54)         60.81           estimate D2E/DX2                !
 ! D179  D(56,55,57,58)         -0.53           estimate D2E/DX2                !
 ! D180  D(56,55,57,59)        178.2593         estimate D2E/DX2                !
 ! D181  D(63,55,57,58)       -179.4829         estimate D2E/DX2                !
 ! D182  D(63,55,57,59)         -0.6936         estimate D2E/DX2                !
 ! D183  D(56,55,63,6)          -1.5472         estimate D2E/DX2                !
 ! D184  D(56,55,63,62)       -178.7045         estimate D2E/DX2                !
 ! D185  D(57,55,63,6)         177.4223         estimate D2E/DX2                !
 ! D186  D(57,55,63,62)          0.265          estimate D2E/DX2                !
 ! D187  D(55,57,59,60)          0.7893         estimate D2E/DX2                !
 ! D188  D(55,57,59,72)       -176.8221         estimate D2E/DX2                !
 ! D189  D(58,57,59,60)        179.5693         estimate D2E/DX2                !
 ! D190  D(58,57,59,72)          1.9579         estimate D2E/DX2                !
 ! D191  D(57,59,60,61)       -179.0747         estimate D2E/DX2                !
 ! D192  D(57,59,60,62)         -0.4438         estimate D2E/DX2                !
 ! D193  D(72,59,60,61)         -1.5359         estimate D2E/DX2                !
 ! D194  D(72,59,60,62)        177.095          estimate D2E/DX2                !
 ! D195  D(57,59,72,73)       -179.3015         estimate D2E/DX2                !
 ! D196  D(57,59,72,77)        -58.857          estimate D2E/DX2                !
 ! D197  D(57,59,72,81)         60.8878         estimate D2E/DX2                !
 ! D198  D(60,59,72,73)          3.1722         estimate D2E/DX2                !
 ! D199  D(60,59,72,77)        123.6167         estimate D2E/DX2                !
 ! D200  D(60,59,72,81)       -116.6385         estimate D2E/DX2                !
 ! D201  D(59,60,62,63)          0.0422         estimate D2E/DX2                !
 ! D202  D(59,60,62,65)       -175.013          estimate D2E/DX2                !
 ! D203  D(61,60,62,63)        178.6846         estimate D2E/DX2                !
 ! D204  D(61,60,62,65)          3.6293         estimate D2E/DX2                !
 ! D205  D(60,62,63,6)        -177.5487         estimate D2E/DX2                !
 ! D206  D(60,62,63,55)          0.0516         estimate D2E/DX2                !
 ! D207  D(65,62,63,6)          -1.2277         estimate D2E/DX2                !
 ! D208  D(65,62,63,55)        176.3726         estimate D2E/DX2                !
 ! D209  D(60,62,65,64)        178.1884         estimate D2E/DX2                !
 ! D210  D(60,62,65,66)          8.044          estimate D2E/DX2                !
 ! D211  D(63,62,65,64)          2.6108         estimate D2E/DX2                !
 ! D212  D(63,62,65,66)       -167.5335         estimate D2E/DX2                !
 ! D213  D(6,64,65,62)          -3.2364         estimate D2E/DX2                !
 ! D214  D(6,64,65,66)         168.3588         estimate D2E/DX2                !
 ! D215  D(71,64,65,62)       -174.449          estimate D2E/DX2                !
 ! D216  D(71,64,65,66)         -2.8538         estimate D2E/DX2                !
 ! D217  D(6,64,71,69)        -163.4908         estimate D2E/DX2                !
 ! D218  D(6,64,71,98)          13.2608         estimate D2E/DX2                !
 ! D219  D(65,64,71,69)          6.1853         estimate D2E/DX2                !
 ! D220  D(65,64,71,98)       -177.063          estimate D2E/DX2                !
 ! D221  D(62,65,66,67)         -9.0446         estimate D2E/DX2                !
 ! D222  D(62,65,66,68)        167.3953         estimate D2E/DX2                !
 ! D223  D(64,65,66,67)       -177.9625         estimate D2E/DX2                !
 ! D224  D(64,65,66,68)         -1.5226         estimate D2E/DX2                !
 ! D225  D(65,66,68,69)          2.2188         estimate D2E/DX2                !
 ! D226  D(65,66,68,85)       -177.7179         estimate D2E/DX2                !
 ! D227  D(67,66,68,69)        178.658          estimate D2E/DX2                !
 ! D228  D(67,66,68,85)         -1.2787         estimate D2E/DX2                !
 ! D229  D(66,68,69,70)        177.6264         estimate D2E/DX2                !
 ! D230  D(66,68,69,71)          1.4987         estimate D2E/DX2                !
 ! D231  D(85,68,69,70)         -2.4394         estimate D2E/DX2                !
 ! D232  D(85,68,69,71)       -178.5671         estimate D2E/DX2                !
 ! D233  D(66,68,85,86)       -179.9218         estimate D2E/DX2                !
 ! D234  D(66,68,85,90)         60.06           estimate D2E/DX2                !
 ! D235  D(66,68,85,94)        -59.4352         estimate D2E/DX2                !
 ! D236  D(69,68,85,86)          0.1434         estimate D2E/DX2                !
 ! D237  D(69,68,85,90)       -119.8747         estimate D2E/DX2                !
 ! D238  D(69,68,85,94)        120.63           estimate D2E/DX2                !
 ! D239  D(68,69,71,64)         -5.5985         estimate D2E/DX2                !
 ! D240  D(68,69,71,98)        177.699          estimate D2E/DX2                !
 ! D241  D(70,69,71,64)        178.1665         estimate D2E/DX2                !
 ! D242  D(70,69,71,98)          1.464          estimate D2E/DX2                !
 ! D243  D(64,71,98,99)       -131.7161         estimate D2E/DX2                !
 ! D244  D(64,71,98,106)        42.4824         estimate D2E/DX2                !
 ! D245  D(69,71,98,99)         44.8111         estimate D2E/DX2                !
 ! D246  D(69,71,98,106)      -140.9904         estimate D2E/DX2                !
 ! D247  D(59,72,73,74)        -61.5502         estimate D2E/DX2                !
 ! D248  D(59,72,73,75)        179.3945         estimate D2E/DX2                !
 ! D249  D(59,72,73,76)         60.2137         estimate D2E/DX2                !
 ! D250  D(77,72,73,74)        177.0086         estimate D2E/DX2                !
 ! D251  D(77,72,73,75)         57.9533         estimate D2E/DX2                !
 ! D252  D(77,72,73,76)        -61.2275         estimate D2E/DX2                !
 ! D253  D(81,72,73,74)         58.5956         estimate D2E/DX2                !
 ! D254  D(81,72,73,75)        -60.4597         estimate D2E/DX2                !
 ! D255  D(81,72,73,76)       -179.6405         estimate D2E/DX2                !
 ! D256  D(59,72,77,78)        -61.7247         estimate D2E/DX2                !
 ! D257  D(59,72,77,79)        178.5935         estimate D2E/DX2                !
 ! D258  D(59,72,77,80)         58.837          estimate D2E/DX2                !
 ! D259  D(73,72,77,78)         61.1545         estimate D2E/DX2                !
 ! D260  D(73,72,77,79)        -58.5273         estimate D2E/DX2                !
 ! D261  D(73,72,77,80)       -178.2838         estimate D2E/DX2                !
 ! D262  D(81,72,77,78)        178.8571         estimate D2E/DX2                !
 ! D263  D(81,72,77,79)         59.1753         estimate D2E/DX2                !
 ! D264  D(81,72,77,80)        -60.5813         estimate D2E/DX2                !
 ! D265  D(59,72,81,82)        -60.3699         estimate D2E/DX2                !
 ! D266  D(59,72,81,83)        179.7392         estimate D2E/DX2                !
 ! D267  D(59,72,81,84)         59.9641         estimate D2E/DX2                !
 ! D268  D(73,72,81,82)        177.3662         estimate D2E/DX2                !
 ! D269  D(73,72,81,83)         57.4753         estimate D2E/DX2                !
 ! D270  D(73,72,81,84)        -62.2998         estimate D2E/DX2                !
 ! D271  D(77,72,81,82)         59.7116         estimate D2E/DX2                !
 ! D272  D(77,72,81,83)        -60.1793         estimate D2E/DX2                !
 ! D273  D(77,72,81,84)       -179.9544         estimate D2E/DX2                !
 ! D274  D(68,85,86,87)        -60.4425         estimate D2E/DX2                !
 ! D275  D(68,85,86,88)       -179.5965         estimate D2E/DX2                !
 ! D276  D(68,85,86,89)         61.1961         estimate D2E/DX2                !
 ! D277  D(90,85,86,87)         59.8661         estimate D2E/DX2                !
 ! D278  D(90,85,86,88)        -59.288          estimate D2E/DX2                !
 ! D279  D(90,85,86,89)       -178.4953         estimate D2E/DX2                !
 ! D280  D(94,85,86,87)        178.5937         estimate D2E/DX2                !
 ! D281  D(94,85,86,88)         59.4397         estimate D2E/DX2                !
 ! D282  D(94,85,86,89)        -59.7677         estimate D2E/DX2                !
 ! D283  D(68,85,90,91)        -60.3126         estimate D2E/DX2                !
 ! D284  D(68,85,90,92)        179.7639         estimate D2E/DX2                !
 ! D285  D(68,85,90,93)         60.1513         estimate D2E/DX2                !
 ! D286  D(86,85,90,91)        177.0201         estimate D2E/DX2                !
 ! D287  D(86,85,90,92)         57.0966         estimate D2E/DX2                !
 ! D288  D(86,85,90,93)        -62.5159         estimate D2E/DX2                !
 ! D289  D(94,85,90,91)         59.004          estimate D2E/DX2                !
 ! D290  D(94,85,90,92)        -60.9194         estimate D2E/DX2                !
 ! D291  D(94,85,90,93)        179.468          estimate D2E/DX2                !
 ! D292  D(68,85,94,95)        -61.0269         estimate D2E/DX2                !
 ! D293  D(68,85,94,96)        179.341          estimate D2E/DX2                !
 ! D294  D(68,85,94,97)         59.4395         estimate D2E/DX2                !
 ! D295  D(86,85,94,95)         61.9991         estimate D2E/DX2                !
 ! D296  D(86,85,94,96)        -57.633          estimate D2E/DX2                !
 ! D297  D(86,85,94,97)       -177.5345         estimate D2E/DX2                !
 ! D298  D(90,85,94,95)        179.9367         estimate D2E/DX2                !
 ! D299  D(90,85,94,96)         60.3046         estimate D2E/DX2                !
 ! D300  D(90,85,94,97)        -59.5969         estimate D2E/DX2                !
 ! D301  D(71,98,99,100)        -7.4335         estimate D2E/DX2                !
 ! D302  D(71,98,99,101)       166.4039         estimate D2E/DX2                !
 ! D303  D(106,98,99,100)      178.1987         estimate D2E/DX2                !
 ! D304  D(106,98,99,101)       -7.9639         estimate D2E/DX2                !
 ! D305  D(71,98,106,104)     -170.9318         estimate D2E/DX2                !
 ! D306  D(71,98,106,107)       12.6753         estimate D2E/DX2                !
 ! D307  D(99,98,106,104)        3.5312         estimate D2E/DX2                !
 ! D308  D(99,98,106,107)     -172.8616         estimate D2E/DX2                !
 ! D309  D(98,99,101,102)     -174.0543         estimate D2E/DX2                !
 ! D310  D(98,99,101,103)        3.9973         estimate D2E/DX2                !
 ! D311  D(100,99,101,102)      -0.2528         estimate D2E/DX2                !
 ! D312  D(100,99,101,103)     177.7988         estimate D2E/DX2                !
 ! D313  D(99,101,103,104)       4.431          estimate D2E/DX2                !
 ! D314  D(99,101,103,108)    -170.6468         estimate D2E/DX2                !
 ! D315  D(102,101,103,104)   -177.4742         estimate D2E/DX2                !
 ! D316  D(102,101,103,108)      7.4481         estimate D2E/DX2                !
 ! D317  D(101,103,104,105)    175.6184         estimate D2E/DX2                !
 ! D318  D(101,103,104,106)     -8.8454         estimate D2E/DX2                !
 ! D319  D(108,103,104,105)     -9.1925         estimate D2E/DX2                !
 ! D320  D(108,103,104,106)    166.3437         estimate D2E/DX2                !
 ! D321  D(101,103,108,7)     -177.1838         estimate D2E/DX2                !
 ! D322  D(101,103,108,9)        6.7704         estimate D2E/DX2                !
 ! D323  D(104,103,108,7)        7.8554         estimate D2E/DX2                !
 ! D324  D(104,103,108,9)     -168.1904         estimate D2E/DX2                !
 ! D325  D(103,104,106,98)       4.8965         estimate D2E/DX2                !
 ! D326  D(103,104,106,107)   -178.7512         estimate D2E/DX2                !
 ! D327  D(105,104,106,98)    -179.6672         estimate D2E/DX2                !
 ! D328  D(105,104,106,107)     -3.3149         estimate D2E/DX2                !
 ! D329  D(8,109,111,112)     -178.0438         estimate D2E/DX2                !
 ! D330  D(8,109,111,120)        0.994          estimate D2E/DX2                !
 ! D331  D(9,109,111,112)        0.2111         estimate D2E/DX2                !
 ! D332  D(9,109,111,120)      179.2488         estimate D2E/DX2                !
 ! D333  D(7,110,122,123)     -176.4507         estimate D2E/DX2                !
 ! D334  D(7,110,122,131)        1.4364         estimate D2E/DX2                !
 ! D335  D(8,110,122,123)        1.624          estimate D2E/DX2                !
 ! D336  D(8,110,122,131)      179.5111         estimate D2E/DX2                !
 ! D337  D(109,111,112,113)     -1.0199         estimate D2E/DX2                !
 ! D338  D(109,111,112,114)    178.9965         estimate D2E/DX2                !
 ! D339  D(120,111,112,113)    179.9299         estimate D2E/DX2                !
 ! D340  D(120,111,112,114)     -0.0537         estimate D2E/DX2                !
 ! D341  D(109,111,120,118)   -179.0165         estimate D2E/DX2                !
 ! D342  D(109,111,120,121)      0.9973         estimate D2E/DX2                !
 ! D343  D(112,111,120,118)      0.0345         estimate D2E/DX2                !
 ! D344  D(112,111,120,121)   -179.9517         estimate D2E/DX2                !
 ! D345  D(111,112,114,115)    179.8505         estimate D2E/DX2                !
 ! D346  D(111,112,114,116)      0.0126         estimate D2E/DX2                !
 ! D347  D(113,112,114,115)     -0.1326         estimate D2E/DX2                !
 ! D348  D(113,112,114,116)   -179.9704         estimate D2E/DX2                !
 ! D349  D(112,114,116,117)    179.9486         estimate D2E/DX2                !
 ! D350  D(112,114,116,118)      0.0481         estimate D2E/DX2                !
 ! D351  D(115,114,116,117)      0.1109         estimate D2E/DX2                !
 ! D352  D(115,114,116,118)   -179.7896         estimate D2E/DX2                !
 ! D353  D(114,116,118,119)    179.8641         estimate D2E/DX2                !
 ! D354  D(114,116,118,120)     -0.0673         estimate D2E/DX2                !
 ! D355  D(117,116,118,119)     -0.0364         estimate D2E/DX2                !
 ! D356  D(117,116,118,120)   -179.9678         estimate D2E/DX2                !
 ! D357  D(116,118,120,111)      0.0259         estimate D2E/DX2                !
 ! D358  D(116,118,120,121)   -179.9884         estimate D2E/DX2                !
 ! D359  D(119,118,120,111)   -179.9056         estimate D2E/DX2                !
 ! D360  D(119,118,120,121)      0.0801         estimate D2E/DX2                !
 ! D361  D(110,122,123,124)     -2.1698         estimate D2E/DX2                !
 ! D362  D(110,122,123,125)    177.4161         estimate D2E/DX2                !
 ! D363  D(131,122,123,124)    179.9185         estimate D2E/DX2                !
 ! D364  D(131,122,123,125)     -0.4956         estimate D2E/DX2                !
 ! D365  D(110,122,131,129)   -177.5676         estimate D2E/DX2                !
 ! D366  D(110,122,131,132)    -11.2414         estimate D2E/DX2                !
 ! D367  D(123,122,131,129)      0.351          estimate D2E/DX2                !
 ! D368  D(123,122,131,132)    166.6772         estimate D2E/DX2                !
 ! D369  D(122,123,125,126)   -179.8369         estimate D2E/DX2                !
 ! D370  D(122,123,125,127)      0.2236         estimate D2E/DX2                !
 ! D371  D(124,123,125,126)     -0.2632         estimate D2E/DX2                !
 ! D372  D(124,123,125,127)    179.7973         estimate D2E/DX2                !
 ! D373  D(123,125,127,128)    179.917          estimate D2E/DX2                !
 ! D374  D(123,125,127,129)      0.1982         estimate D2E/DX2                !
 ! D375  D(126,125,127,128)     -0.0224         estimate D2E/DX2                !
 ! D376  D(126,125,127,129)   -179.7412         estimate D2E/DX2                !
 ! D377  D(125,127,129,130)    179.4485         estimate D2E/DX2                !
 ! D378  D(125,127,129,131)     -0.3427         estimate D2E/DX2                !
 ! D379  D(128,127,129,130)     -0.2702         estimate D2E/DX2                !
 ! D380  D(128,127,129,131)    179.9386         estimate D2E/DX2                !
 ! D381  D(127,129,131,122)      0.0665         estimate D2E/DX2                !
 ! D382  D(127,129,131,132)   -164.4716         estimate D2E/DX2                !
 ! D383  D(130,129,131,122)   -179.725          estimate D2E/DX2                !
 ! D384  D(130,129,131,132)     15.7369         estimate D2E/DX2                !
 --------------------------------------------------------------------------------
 Trust Radius=3.00D-01 FncErr=1.00D-07 GrdErr=1.00D-06 EigMax=2.50D+02 EigMin=1.00D-04
 Number of steps in this run=    792 maximum allowed number of steps=    792.
 GradGradGradGradGradGradGradGradGradGradGradGradGradGradGradGradGradGrad

 Stoichiometry    C61H62N8Pd(3)
 Framework group  C1[X(C61H62N8Pd)]
 Deg. of freedom   390
 Full point group                 C1      NOp   1
 Largest Abelian subgroup         C1      NOp   1
 Largest concise Abelian subgroup C1      NOp   1
                         Standard orientation:                         
 ---------------------------------------------------------------------
 Center     Atomic      Atomic             Coordinates (Angstroms)
 Number     Number       Type             X           Y           Z
 ---------------------------------------------------------------------
      1         46           0       -0.215208    0.609748   -0.480806
      2          7           0        0.001579   -2.354387   -1.738562
      3          7           0        1.703886   -1.064587   -1.862711
      4          7           0        1.184362    3.118777   -0.046032
      5          7           0       -0.630601    3.408411    1.054312
      6          7           0       -2.180147    0.099309    0.169820
      7          7           0        4.203797    0.455547    1.465423
      8          7           0        6.212373   -0.114837    0.347333
      9          7           0        4.511128   -1.747517    0.610858
     10          6           0       -4.778836   -1.994612   -3.128106
     11          1           0       -4.765350   -0.921256   -2.917845
     12          1           0       -5.794104   -2.357039   -2.943225
     13          1           0       -4.563049   -2.132019   -4.192740
     14          6           0       -3.762696   -2.722329   -2.260997
     15          1           0       -3.807024   -3.801457   -2.456059
     16          1           0       -4.021758   -2.588182   -1.204703
     17          6           0       -2.345370   -2.219375   -2.492888
     18          1           0       -2.311194   -1.134473   -2.349935
     19          1           0       -2.037709   -2.413676   -3.527632
     20          6           0       -1.349051   -2.859598   -1.541519
     21          1           0       -1.633584   -2.674012   -0.505855
     22          1           0       -1.310672   -3.942482   -1.683542
     23          6           0        1.023591   -3.079737   -2.323092
     24          1           0        0.893326   -4.104822   -2.626802
     25          6           0        2.103784   -2.265650   -2.396109
     26          1           0        3.101361   -2.445198   -2.758873
     27          6           0        0.405004   -1.107697   -1.436641
     28          6           0        2.386790    0.159124   -1.698762
     29          6           0        1.579313    1.099444   -1.085563
     30          6           0        2.104952    2.344096   -0.789722
     31          6           0        3.400330    2.690718   -1.146427
     32          1           0        3.824669    3.657755   -0.902484
     33          6           0        4.177957    1.729200   -1.790717
     34          1           0        5.202040    1.969690   -2.050089
     35          6           0        3.693945    0.450525   -2.063549
     36          1           0        4.338185   -0.288927   -2.525632
     37          6           0       -0.022575    2.536034    0.230255
     38          6           0        1.320054    4.325986    0.598456
     39          1           0        2.207114    4.932582    0.527157
     40          6           0        0.169318    4.513670    1.289042
     41          1           0       -0.144911    5.325540    1.923540
     42          6           0       -1.954448    3.214041    1.624184
[...]
  Beta virt. eigenvalues --    2.92142   2.92895   2.93057   2.93323   2.93829
  Beta virt. eigenvalues --    2.94072   2.94638   2.94869   2.95294   2.96204
  Beta virt. eigenvalues --    2.96259   2.96442   2.97053   2.97670   2.97959
  Beta virt. eigenvalues --    2.98304   2.99224   2.99396   2.99940   3.00118
  Beta virt. eigenvalues --    3.00594   3.01120   3.01828   3.01926   3.02502
  Beta virt. eigenvalues --    3.03080   3.03697   3.04130   3.04200   3.04548
  Beta virt. eigenvalues --    3.04787   3.05765   3.05878   3.06796   3.07176
  Beta virt. eigenvalues --    3.07611   3.08530   3.08743   3.08914   3.09278
  Beta virt. eigenvalues --    3.09948   3.10354   3.10850   3.11816   3.12107
  Beta virt. eigenvalues --    3.12818   3.13273   3.14877   3.15052   3.16046
  Beta virt. eigenvalues --    3.17401   3.18731   3.18929   3.19260   3.19939
  Beta virt. eigenvalues --    3.21520   3.21823   3.21901   3.22443   3.23131
  Beta virt. eigenvalues --    3.23717   3.23891   3.24631   3.26061   3.26244
  Beta virt. eigenvalues --    3.26790   3.27249   3.27439   3.28107   3.28410
  Beta virt. eigenvalues --    3.28813   3.29757   3.31125   3.31721   3.33346
  Beta virt. eigenvalues --    3.33742   3.33957   3.34707   3.36060   3.37069
  Beta virt. eigenvalues --    3.39795   3.40300   3.40656   3.40774   3.41542
  Beta virt. eigenvalues --    3.42351   3.42723   3.43263   3.44187   3.44415
  Beta virt. eigenvalues --    3.45008   3.45218   3.46929   3.47167   3.49388
  Beta virt. eigenvalues --    3.49459   3.49824   3.51599   3.51897   3.52050
  Beta virt. eigenvalues --    3.52560   3.53398   3.54730   3.54784   3.55468
  Beta virt. eigenvalues --    3.58368   3.60291   3.60963   3.61304   3.62591
  Beta virt. eigenvalues --    3.63766   3.64463   3.65302   3.66037   3.67254
  Beta virt. eigenvalues --    3.67904   3.68554   3.70200   3.70665   3.71940
  Beta virt. eigenvalues --    3.72537   3.73178   3.74542   3.75775   3.76189
  Beta virt. eigenvalues --    3.77523   3.78241   3.79108   3.79424   3.79473
  Beta virt. eigenvalues --    3.79544   3.79733   3.80140   3.80840   3.81073
  Beta virt. eigenvalues --    3.81354   3.82173   3.82652   3.83254   3.83330
  Beta virt. eigenvalues --    3.83482   3.83745   3.84103   3.84266   3.84831
  Beta virt. eigenvalues --    3.85115   3.85627   3.85937   3.86413   3.86674
  Beta virt. eigenvalues --    3.87719   3.88176   3.88301   3.88620   3.88962
  Beta virt. eigenvalues --    3.89881   3.90822   3.92241   3.93788   3.94846
  Beta virt. eigenvalues --    3.95392   3.96225   3.97707   3.99450   4.00536
  Beta virt. eigenvalues --    4.01679   4.02500   4.03447   4.03832   4.05709
  Beta virt. eigenvalues --    4.05882   4.07045   4.08271   4.08383   4.12086
  Beta virt. eigenvalues --    4.12363   4.13851   4.14346   4.15017   4.15876
  Beta virt. eigenvalues --    4.16323   4.16521   4.16897   4.17948   4.20203
  Beta virt. eigenvalues --    4.21715   4.22002   4.22771   4.24661   4.25460
  Beta virt. eigenvalues --    4.26602   4.27619   4.28400   4.30393   4.31283
  Beta virt. eigenvalues --    4.31730   4.31825   4.31957   4.32985   4.38161
  Beta virt. eigenvalues --    4.39351   4.42508   4.45458   4.57048   4.59298
  Beta virt. eigenvalues --    4.62057   4.63346   4.68602   4.70695   4.71850
  Beta virt. eigenvalues --    4.75508   4.85062   4.88027   4.88389   4.88438
  Beta virt. eigenvalues --    4.88596   4.91274   5.00633   5.01829   5.08458
  Beta virt. eigenvalues --    5.18514   5.19801   5.21332   5.27120   5.29765
  Beta virt. eigenvalues --    5.31012   5.40493  23.63827  23.67080  23.68752
  Beta virt. eigenvalues --   23.70334  23.78027  23.82075  23.84384  23.86866
  Beta virt. eigenvalues --   23.90689  23.90902  23.93003  23.94718  23.97757
  Beta virt. eigenvalues --   23.97844  23.98344  23.98935  23.99125  23.99415
  Beta virt. eigenvalues --   23.99902  24.00571  24.01247  24.01842  24.03079
  Beta virt. eigenvalues --   24.04192  24.04630  24.04742  24.04823  24.05027
  Beta virt. eigenvalues --   24.05303  24.05417  24.05701  24.05729  24.05967
  Beta virt. eigenvalues --   24.06193  24.06414  24.07147  24.07675  24.08200
  Beta virt. eigenvalues --   24.09237  24.10059  24.12648  24.14715  24.15264
  Beta virt. eigenvalues --   24.16143  24.19262  24.19488  24.20989  24.21262
  Beta virt. eigenvalues --   24.22122  24.22816  24.22848  24.23383  24.27170
  Beta virt. eigenvalues --   24.27888  24.28757  24.29780  24.30033  24.31375
  Beta virt. eigenvalues --   24.31847  24.31917  24.32590  35.62765  35.65235
  Beta virt. eigenvalues --   35.72931  35.73573  35.77372  35.77450  35.87462
  Beta virt. eigenvalues --   35.88074  40.36370  40.81546  40.94976  52.16472
          Condensed to atoms (all electrons):
          Atomic-Atomic Spin Densities.
 Mulliken charges and spin densities:
               1          2
     1  Pd   0.974356   0.039772
     2  N   -0.377152   0.000768
     3  N   -0.423598  -0.000758
     4  N   -0.428212   0.000174
     5  N   -0.380246   0.000831
     6  N   -0.612504   0.375106
     7  N   -0.424106   0.037641
     8  N   -0.466447   0.163255
     9  N   -0.430720   0.045738
    10  C   -0.355516   0.000002
    11  H    0.158689  -0.000379
    12  H    0.118699   0.000096
    13  H    0.118340  -0.000013
    14  C   -0.288894  -0.000003
    15  H    0.123235   0.000220
    16  H    0.163953  -0.000717
    17  C   -0.275963   0.000118
    18  H    0.179650   0.000765
    19  H    0.135549   0.000242
    20  C   -0.103494   0.000589
    21  H    0.194793  -0.001072
    22  H    0.135719  -0.000112
    23  C   -0.005992   0.000249
    24  H    0.142894   0.000199
    25  C    0.030484   0.000397
    26  H    0.148139   0.000102
    27  C    0.116881   0.012763
    28  C    0.295243   0.001848
    29  C   -0.477838  -0.003936
    30  C    0.291763  -0.000563
    31  C   -0.106364   0.001670
    32  H    0.116531  -0.000118
    33  C   -0.121204  -0.000615
    34  H    0.120421   0.000745
    35  C   -0.116915  -0.000564
    36  H    0.114965  -0.000111
    37  C    0.103542   0.006142
    38  C    0.028929  -0.000178
    39  H    0.149800   0.000003
    40  C   -0.006528   0.000812
    41  H    0.146688   0.000043
    42  C   -0.131303   0.000845
    43  H    0.162842   0.000132
    44  H    0.191751  -0.000839
    45  C   -0.258407   0.000381
    46  H    0.131670   0.000393
    47  H    0.151696  -0.000075
    48  C   -0.290097   0.000099
    49  H    0.171113  -0.000204
    50  H    0.128206   0.000005
    51  C   -0.347431   0.000016
    52  H    0.126753   0.000039
    53  H    0.131067  -0.000003
    54  H    0.121518   0.000060
    55  C   -0.143835   0.127136
    56  H    0.153580  -0.006881
    57  C   -0.100204  -0.065422
    58  H    0.108884   0.002982
    59  C    0.018881   0.139785
    60  C   -0.082712  -0.043455
    61  H    0.102876   0.002068
    62  C   -0.083906   0.114502
    63  C    0.194300  -0.091917
    64  C    0.170497  -0.046397
    65  C   -0.053205  -0.000839
    66  C   -0.056947   0.208595
    67  H    0.102313  -0.013492
    68  C    0.032690   0.113419
    69  C   -0.087558   0.015605
    70  H    0.114595  -0.002923
    71  C   -0.081644   0.215011
    72  C   -0.334540  -0.010598
    73  C   -0.316014   0.000524
    74  H    0.133761   0.000158
    75  H    0.132589  -0.000197
    76  H    0.134461   0.000196
    77  C   -0.268075   0.003642
    78  H    0.137940  -0.000053
    79  H    0.126032   0.000985
    80  H    0.123051  -0.000190
    81  C   -0.268977   0.003990
    82  H    0.125122  -0.000218
    83  H    0.125198   0.001180
    84  H    0.137402   0.000003
    85  C   -0.345585  -0.011563
    86  C   -0.312029   0.000076
    87  H    0.133280   0.000325
    88  H    0.131094  -0.000244
    89  H    0.140107   0.000201
    90  C   -0.263135   0.005589
    91  H    0.122476   0.000426
    92  H    0.126952   0.002843
    93  H    0.129298  -0.000042
    94  C   -0.260226   0.004989
    95  H    0.133408  -0.000069
    96  H    0.126034   0.002292
    97  H    0.122344   0.000450
    98  C   -0.050349   0.177359
    99  C   -0.111476   0.006832
   100  H    0.093798  -0.001430
   101  C   -0.060007   0.083934
   102  H    0.107364  -0.005755
   103  C   -0.238562   0.115985
   104  C   -0.038281   0.041040
   105  H    0.130678  -0.003362
   106  C   -0.215913   0.038180
   107  H    0.137361  -0.002828
   108  C    0.365187   0.168334
   109  C    0.404107  -0.001159
   110  C    0.410176   0.006674
   111  C   -0.286382  -0.001266
   112  C   -0.022643  -0.002176
   113  H    0.125889   0.000108
   114  C   -0.133062   0.002750
   115  H    0.106362  -0.000216
   116  C   -0.090689   0.004776
   117  H    0.108578  -0.000363
   118  C   -0.129171  -0.001390
   119  H    0.107769   0.000023
   120  C   -0.022446   0.008397
   121  H    0.127247  -0.000901
   122  C   -0.257019  -0.003040
   123  C   -0.026439   0.011017
   124  H    0.126783  -0.001075
   125  C   -0.129169  -0.003494
   126  H    0.108043   0.000132
   127  C   -0.092404   0.008146
   128  H    0.108050  -0.000573
   129  C   -0.136775   0.000780
   130  H    0.104339  -0.000121
   131  C   -0.039475   0.000236
   132  H    0.131007  -0.000029
 Sum of Mulliken charges =  -0.00000   2.00000
 Mulliken charges and spin densities with hydrogens summed into heavy atoms:
               1          2
     1  Pd   0.974356   0.039772
     2  N   -0.377152   0.000768
     3  N   -0.423598  -0.000758
     4  N   -0.428212   0.000174
     5  N   -0.380246   0.000831
     6  N   -0.612504   0.375106
     7  N   -0.424106   0.037641
     8  N   -0.466447   0.163255
     9  N   -0.430720   0.045738
    10  C    0.040212  -0.000294
    14  C   -0.001706  -0.000500
    17  C    0.039236   0.001126
    20  C    0.227018  -0.000596
    23  C    0.136902   0.000448
    25  C    0.178623   0.000499
    27  C    0.116881   0.012763
    28  C    0.295243   0.001848
    29  C   -0.477838  -0.003936
    30  C    0.291763  -0.000563
    31  C    0.010167   0.001552
    33  C   -0.000783   0.000130
    35  C   -0.001951  -0.000675
    37  C    0.103542   0.006142
    38  C    0.178729  -0.000175
    40  C    0.140161   0.000855
    42  C    0.223290   0.000138
    45  C    0.024960   0.000699
    48  C    0.009223  -0.000101
    51  C    0.031906   0.000112
    55  C    0.009745   0.120255
    57  C    0.008680  -0.062440
    59  C    0.018881   0.139785
    60  C    0.020164  -0.041387
    62  C   -0.083906   0.114502
    63  C    0.194300  -0.091917
    64  C    0.170497  -0.046397
    65  C   -0.053205  -0.000839
    66  C    0.045365   0.195104
    68  C    0.032690   0.113419
    69  C    0.027037   0.012683
    71  C   -0.081644   0.215011
    72  C   -0.334540  -0.010598
    73  C    0.084798   0.000680
    77  C    0.118949   0.004384
    81  C    0.118745   0.004956
    85  C   -0.345585  -0.011563
    86  C    0.092452   0.000358
    90  C    0.115590   0.008816
    94  C    0.121559   0.007662
    98  C   -0.050349   0.177359
    99  C   -0.017678   0.005401
   101  C    0.047358   0.078178
   103  C   -0.238562   0.115985
   104  C    0.092397   0.037678
   106  C   -0.078552   0.035353
   108  C    0.365187   0.168334
   109  C    0.404107  -0.001159
   110  C    0.410176   0.006674
   111  C   -0.286382  -0.001266
   112  C    0.103246  -0.002069
   114  C   -0.026700   0.002535
   116  C    0.017889   0.004414
   118  C   -0.021402  -0.001367
   120  C    0.104801   0.007496
   122  C   -0.257019  -0.003040
   123  C    0.100345   0.009942
   125  C   -0.021126  -0.003361
   127  C    0.015646   0.007573
   129  C   -0.032436   0.000659
   131  C    0.091533   0.000207
 Electronic spatial extent (au):  <R**2>=          57558.5784
 Charge=             -0.0000 electrons
 Dipole moment (field-independent basis, Debye):
    X=            -11.6177    Y=              2.5677    Z=             -3.1198  Tot=             12.3003
 Quadrupole moment (field-independent basis, Debye-Ang):
   XX=           -428.0765   YY=           -369.9321   ZZ=           -427.4047
   XY=              9.9923   XZ=            -21.5387   YZ=             18.8467
 Traceless Quadrupole moment (field-independent basis, Debye-Ang):
   XX=            -19.6054   YY=             38.5390   ZZ=            -18.9336
   XY=              9.9923   XZ=            -21.5387   YZ=             18.8467
 Octapole moment (field-independent basis, Debye-Ang**2):
  XXX=           -381.5519  YYY=             94.4355  ZZZ=            -48.0759  XYY=             -9.6096
  XXY=             73.7825  XXZ=           -169.1098  XZZ=            -68.2096  YZZ=             -1.0040
  YYZ=             15.4010  XYZ=             68.3976
 Hexadecapole moment (field-independent basis, Debye-Ang**3):
 XXXX=         -51492.4650 YYYY=         -18092.6674 ZZZZ=          -8530.9207 XXXY=            341.6152
 XXXZ=           -945.1424 YYYX=            347.9591 YYYZ=            477.2071 ZZZX=            -99.0321
 ZZZY=             53.0496 XXYY=         -11440.4278 XXZZ=         -10225.2153 YYZZ=          -4379.3172
 XXYZ=            -13.5719 YYXZ=           -273.9391 ZZXY=           -125.1449
 N-N= 1.198404433741D+04 E-N=-3.074302365829D+04  KE= 2.833850330928D+03
 Unable to Open any file for archive entry.
 1\1\GINC-CLUSTER\FOpt\UPBE1PBE\GenECP\C61H62N8Pd1(3)\xxxxxx\20-Jan-202
 6\0\\# opt PBE1PBE/genecp scrf=(solvent=toluene) em=gd3bj\\t1 opt\\0,3
 \Pd,-0.2156088679,0.6086095377,-0.4850031319\N,0.0025265273,-2.3588494
 089,-1.7347312603\N,1.7040955464,-1.068452165,-1.8626831457\N,1.182589
 4257,3.119709746,-0.0576587496\N,-0.6325390204,3.4116145077,1.04182910
 25\N,-2.1801301498,0.0987298891,0.1673814599\N,4.2036336809,0.46254708
 06,1.4607710672\N,6.2123919088,-0.1095926273,0.3439258494\N,4.51238340
 75,-1.7427292806,0.612447975\C,-4.7783844401,-2.0054883277,-3.12431189
 48\H,-4.7655524498,-0.9315631768,-2.9169167951\H,-5.793385794,-2.36806
 41681,-2.9382721146\H,-4.562705031,-2.1456009213,-4.188613907\C,-3.761
 6386162,-2.7302148809,-2.2554120656\H,-3.8054942725,-3.8099269105,-2.4
 473262987\H,-4.0204788623,-2.5931423496,-1.1994454085\C,-2.3446083,-2.
 2272376565,-2.4890974722\H,-2.3109218801,-1.1419267596,-2.3491943676\H
 ,-2.0371276989,-2.4242964178,-3.523373841\C,-1.3477880989,-2.864290318
 3,-1.536133176\H,-1.6323353807,-2.6760212206,-0.5009553324\H,-1.308777
 6686,-3.9475379097,-1.6751534355\C,1.0248041267,-3.0851849577,-2.31755
 67182\H,0.8950294974,-4.1111202188,-2.6185767277\C,2.1045438814,-2.270
 7121916,-2.3929466355\H,3.1020945244,-2.4506381965,-2.7555753132\C,0.4
 053370088,-1.1111419211,-1.4361983493\C,2.3863727321,0.1560756831,-1.7
 022178448\C,1.578517579,1.09764987,-1.0914565199\C,2.1034999526,2.3434
 573192,-0.7992936373\C,3.3985972151,2.6898072992,-1.157281774\H,3.8224
 323811,3.6577856442,-0.916220497\C,4.1766072182,1.7269119001,-1.799049
 652\H,5.2004942032,1.9672435417,-2.0593158028\C,3.693265275,0.44720114
 62,-2.0681687485\H,4.33782648,-0.2931738338,-2.5283149928\C,-0.0239252
 009,2.5370162053,0.2205637751\C,1.3174611376,4.3290664087,0.5829519534
 \H,2.2040920868,4.9360475962,0.5096806203\C,0.1666445401,4.5181422148,
 1.273024873\H,-0.1480760448,5.3317854702,1.9049877462\C,-1.9560596157,
 3.2178442563,1.612677114\H,-1.8834242747,3.3513850796,2.6963964264\H,-
 2.2232499875,2.1787153592,1.4215093215\C,-2.9936668766,4.1560026048,1.
 0205324881\H,-2.7477976753,5.1928950574,1.2814469944\H,-2.952546737,4.
 0838618802,-0.0716803259\C,-4.397558929,3.8175740472,1.5010060273\H,-4
 .6573475346,2.8102907554,1.1547498994\H,-4.4122458488,3.7838480079,2.5
 97670055\C,-5.4324248267,4.8148080777,1.0052075782\H,-6.4384308979,4.5
 440062306,1.3366479515\H,-5.4418744384,4.8545468399,-0.0879348174\H,-5
 .2192377631,5.8230787133,1.3746717383\C,-3.400608806,1.6131462303,-1.3
 955152264\H,-2.4992375662,2.0785569254,-1.7811653287\C,-4.6570289842,1
 .954200108,-1.8703381599\H,-4.7275583135,2.7135768782,-2.641461126\C,-
 5.8353127714,1.334791203,-1.4066850414\C,-5.7317807573,0.3506315776,-0
 .4187309912\H,-6.6166911792,-0.1550062175,-0.0517400565\C,-4.484355741
 3,-0.0021954385,0.0762123537\C,-3.3158044848,0.6288565113,-0.412411825
 7\C,-2.601146012,-0.8648755897,1.0454347353\C,-4.0155425262,-1.0125002
 777,1.0046946639\C,-4.6343537809,-2.0786546763,1.6224701067\H,-5.70990
 40027,-2.1992534998,1.5572456597\C,-3.8413099318,-3.05824372,2.2804064
 488\C,-2.4664023813,-2.8982102129,2.327741705\H,-1.8593717229,-3.61953
 84026,2.8599188017\C,-1.7921955911,-1.7796219463,1.7751309728\C,-7.173
 6954537,1.7168150322,-2.0337060346\C,-8.3444787529,0.9643373615,-1.402
 2536713\H,-8.2530297574,-0.1171572872,-1.5396574207\H,-9.2777602992,1.
 2798629746,-1.8767432609\H,-8.4288066296,1.1719973888,-0.3313181713\C,
 -7.4216875842,3.2206598623,-1.859792352\H,-7.4738412313,3.4856168636,-
 0.8006483031\H,-8.3693087583,3.5007056654,-2.3306577363\H,-6.631156816
 3,3.8196943548,-2.3188347092\C,-7.1347382626,1.3767938374,-3.531246332
 7\H,-6.3426616017,1.9236325195,-4.0489895598\H,-8.0881920289,1.6388714
 669,-4.0010035975\H,-6.95962417,0.3078245067,-3.6822316963\C,-4.542782
 3029,-4.2552738742,2.9106967522\C,-3.5675362573,-5.2209913457,3.581510
 8123\H,-2.8461073318,-5.6285063242,2.8673109468\H,-4.1234888471,-6.060
 4357188,4.0082983623\H,-3.01524446,-4.7399710042,4.3937327966\C,-5.299
 3236946,-5.0195421148,1.8131125039\H,-6.0534166085,-4.3955097949,1.327
 0257009\H,-5.8082696707,-5.8875335903,2.2440118628\H,-4.6081583899,-5.
 3745429099,1.0430021953\C,-5.5380869441,-3.7585968174,3.9690627585\H,-
 5.0189111934,-3.2119009434,4.7613323116\H,-6.058183763,-4.6083766074,4
 .4223753118\H,-6.291947308,-3.0942387265,3.5392493305\C,-0.3701430155,
 -1.6040776655,1.8742240938\C,0.5373896732,-2.6665104129,1.631067256\H,
 0.1476553899,-3.669621287,1.4818167089\C,1.8764572937,-2.4264336719,1.
 4582251283\H,2.5486014105,-3.2286583987,1.1784001078\C,2.4122553359,-1
 .1161863842,1.600184728\C,1.5323347192,-0.0901047599,2.0191996082\H,1.
 9401017464,0.8963366934,2.2013276747\C,0.1805441813,-0.3155838984,2.10
 30242283\H,-0.4828328112,0.4878821515,2.4066856912\C,3.757905874,-0.80
 0402751,1.2374934911\C,5.6958319219,-1.3424711085,0.1881613083\C,5.402
 278118,0.7459178539,0.9988302999\C,6.5150260673,-2.3233705867,-0.56145
 53363\C,6.0332946477,-3.6129746361,-0.8019119439\H,5.0573375333,-3.877
 0228041,-0.4119764319\C,6.7925202855,-4.5235546102,-1.5216734844\H,6.4
 103002088,-5.523443822,-1.7008134685\C,8.0441912346,-4.1591057295,-2.0
 115156161\H,8.6381056357,-4.8722784003,-2.5739192194\C,8.5301301876,-2
 .8779035492,-1.7747853202\H,9.5058384748,-2.5895081532,-2.1523869599\C
 ,7.7711719206,-1.9647859236,-1.0546246057\H,8.132371773,-0.962285634,-
 0.8600082689\C,5.8817706427,2.1349027053,1.1760406091\C,7.110370304,2.
 5348176654,0.6488991052\H,7.7170638851,1.7954140393,0.1400583954\C,7.5
 322028855,3.8529841808,0.7711625038\H,8.4882776594,4.1541628596,0.3552
 184859\C,6.7344994441,4.7853703466,1.4250167984\H,7.065534014,5.814387
 6452,1.5211266652\C,5.5106386774,4.3899937101,1.9611945968\H,4.8874540
 18,5.1113512146,2.4807530299\C,5.0873015389,3.075542118,1.8371305109\H
 ,4.1351536408,2.7496576257,2.2388618751\\Version=ES64L-G16RevC.02\Stat
 e=3-A\HF=-2925.3420702\S2=2.023134\S2-1=0.\S2A=2.000331\RMSD=1.775e-09
 \RMSF=1.961e-06\Dipole=-4.5714585,1.0044203,-1.2296063\Quadrupole=-14.
 5874784,28.7321453,-14.144667,7.3642884,-16.0403356,13.8936226\PG=C01 
 [X(C61H62N8Pd1)]\\@
 The archive entry for this job was punched.


 THE WORLD IS MADE UP OF THE WILLS, THE WON'TS, AND THE CANT'S:
 THE WILLS DO EVERYTHING,
 THE WON'TS DO NOTHING,
 THE CAN'TS CAN'T DO ANYTHING.

                               -- FROM WALT DISNEY'S "BLACK HOLE"
 Job cpu time:       9 days 16 hours 55 minutes 31.6 seconds.
 Elapsed time:       0 days  3 hours 15 minutes 25.7 seconds.
 File lengths (MBytes):  RWF=   3844 Int=      0 D2E=      0 Chk=    271 Scr=      1
 Normal termination of Gaussian 16 at Tue Jan 20 14:38:01 2026.
