 Entering Gaussian System, Link 0=g16
 Initial command:
 /public/software/g16/l1.exe "/tmp/Gau-63732.inp" -scrdir="/tmp/"
 Entering Link 1 = /public/software/g16/l1.exe PID=     63734.
  
 Copyright (c) 1988-2021, Gaussian, Inc.  All Rights Reserved.
  
 This is part of the Gaussian(R) 16 program.  It is based on
 the Gaussian(R) 09 system (copyright 2009, Gaussian, Inc.),
 the Gaussian(R) 03 system (copyright 2003, Gaussian, Inc.),
 the Gaussian(R) 98 system (copyright 1998, Gaussian, Inc.),
 the Gaussian(R) 94 system (copyright 1995, Gaussian, Inc.),
 the Gaussian 92(TM) system (copyright 1992, Gaussian, Inc.),
 the Gaussian 90(TM) system (copyright 1990, Gaussian, Inc.),
 the Gaussian 88(TM) system (copyright 1988, Gaussian, Inc.),
 the Gaussian 86(TM) system (copyright 1986, Carnegie Mellon
 University), and the Gaussian 82(TM) system (copyright 1983,
 Carnegie Mellon University). Gaussian is a federally registered
 trademark of Gaussian, Inc.
  
 This software contains proprietary and confidential information,
 including trade secrets, belonging to Gaussian, Inc.
  
 This software is provided under written license and may be
 used, copied, transmitted, or stored only in accord with that
 written license.
  
 The following legend is applicable only to US Government
 contracts under FAR:
  
                    RESTRICTED RIGHTS LEGEND
  
 Use, reproduction and disclosure by the US Government is
 subject to restrictions as set forth in subparagraphs (a)
 and (c) of the Commercial Computer Software - Restricted
 Rights clause in FAR 52.227-19.
  
 Gaussian, Inc.
 340 Quinnipiac St., Bldg. 40, Wallingford CT 06492
  
  
 ---------------------------------------------------------------
 Warning -- This program may not be used in any manner that
 competes with the business of Gaussian, Inc. or will provide
 assistance to any competitor of Gaussian, Inc.  The licensee
 of this program is prohibited from giving any competitor of
 Gaussian, Inc. access to this program.  By using this program,
 the user acknowledges that Gaussian, Inc. is engaged in the
 business of creating and licensing software in the field of
 computational chemistry and represents and warrants to the
 licensee that it is not a competitor of Gaussian, Inc. and that
 it will not use this program in any manner prohibited above.
 ---------------------------------------------------------------
  

 Cite this work as:
 Gaussian 16, Revision C.02,
 M. J. Frisch, G. W. Trucks, H. B. Schlegel, G. E. Scuseria, 
 M. A. Robb, J. R. Cheeseman, G. Scalmani, V. Barone, 
 G. A. Petersson, H. Nakatsuji, X. Li, M. Caricato, A. V. Marenich, 
 J. Bloino, B. G. Janesko, R. Gomperts, B. Mennucci, H. P. Hratchian, 
 J. V. Ortiz, A. F. Izmaylov, J. L. Sonnenberg, D. Williams-Young, 
 F. Ding, F. Lipparini, F. Egidi, J. Goings, B. Peng, A. Petrone, 
 T. Henderson, D. Ranasinghe, V. G. Zakrzewski, J. Gao, N. Rega, 
 G. Zheng, W. Liang, M. Hada, M. Ehara, K. Toyota, R. Fukuda, 
 J. Hasegawa, M. Ishida, T. Nakajima, Y. Honda, O. Kitao, H. Nakai, 
 T. Vreven, K. Throssell, J. A. Montgomery, Jr., J. E. Peralta, 
 F. Ogliaro, M. J. Bearpark, J. J. Heyd, E. N. Brothers, K. N. Kudin, 
 V. N. Staroverov, T. A. Keith, R. Kobayashi, J. Normand, 
 K. Raghavachari, A. P. Rendell, J. C. Burant, S. S. Iyengar, 
 J. Tomasi, M. Cossi, J. M. Millam, M. Klene, C. Adamo, R. Cammi, 
 J. W. Ochterski, R. L. Martin, K. Morokuma, O. Farkas, 
 J. B. Foresman, and D. J. Fox, Gaussian, Inc., Wallingford CT, 2019.
 
 ******************************************
 Gaussian 16:  ES64L-G16RevC.02  7-Dec-2021
                21-Jan-2026 
 ******************************************
 %nprocshared=96
 Will use up to   96 processors via shared memory.
 %mem=345GB
 %chk=t1-3-td-noopt.chk
 ----------------------------------------------------------------------
 # td=(triplets,nstates=5) PBE1PBE/genecp scrf=(solvent=toluene) em=gd3
 bj
 ----------------------------------------------------------------------
 1/38=1,172=1/1;
 2/12=2,17=6,18=5,40=1/2;
 3/5=7,11=9,16=1,17=8,25=1,30=1,70=2201,72=13,74=-13,124=41/1,2,3,8;
 4//1;
 5/5=2,38=5,53=13/2;
 8/6=1,10=1,108=5/1;
 9/41=5,42=1,48=3,70=2/14;
 6/7=2,8=2,9=2,10=2/1;
 99/5=1,9=1/99;
 ------
 s1 opt
 ------
 Symbolic Z-matrix:
 Charge =  0 Multiplicity = 1
 Pd                   -0.21518   0.60955  -0.48135 
 N                     0.00132  -2.35486  -1.73858 
 N                     1.70366  -1.06513  -1.86312 
 N                     1.18445   3.11875  -0.04753 
 N                    -0.6306    3.40893   1.05254 
 N                    -2.18006   0.09917   0.16957 
 N                     4.20381   0.45598   1.46441 
 N                     6.21233  -0.11451   0.34629 
 N                     4.51134  -1.74732   0.61053 
 C                    -4.77926  -1.99518  -3.12766 
 H                    -4.76582  -0.92179  -2.91754 
 H                    -5.79449  -2.35763  -2.94262 
 H                    -4.56357  -2.13272  -4.19229 
 C                    -3.76301  -2.7227   -2.26051 
 H                    -3.80749  -3.8019   -2.45516 
 H                    -4.02186  -2.58815  -1.20422 
 C                    -2.34567  -2.21996  -2.4928 
 H                    -2.31136  -1.13503  -2.35015 
 H                    -2.03822  -2.41458  -3.52755 
 C                    -1.3493   -2.86001  -1.54137 
 H                    -1.63383  -2.6742   -0.50574 
 H                    -1.31092  -3.94292  -1.68313 
 C                     1.02323  -3.08031  -2.32315 
 H                     0.89288  -4.1054   -2.62678 
 C                     2.10345  -2.26628  -2.39639 
 H                     3.10092  -2.44587  -2.75939 
 C                     0.40484  -1.10815  -1.43685 
 C                     2.38664   0.15858  -1.69949 
 C                     1.57928   1.09908  -1.08642 
 C                     2.10497   2.34384  -0.79105 
 C                     3.4003    2.69033  -1.14806 
 H                     3.82468   3.65745  -0.90451 
 C                     4.1778    1.72861  -1.7922 
 H                     5.20185   1.969    -2.05177 
 C                     3.69373   0.44987  -2.0646 
 H                     4.3379   -0.28971  -2.52656 
 C                    -0.02243   2.53606   0.22911 
 C                     1.31997   4.3264    0.59615 
 H                     2.20697   4.93304   0.52449 
 C                     0.16921   4.5144    1.28661 
 H                    -0.14509   5.32662   1.9206 
 C                    -1.95428   3.21449   1.62279 
 H                    -1.88166   3.34524   2.70685 
 H                    -2.22207   2.176     1.42896 
 C                    -2.99129   4.15475   1.03293 
 H                    -2.74484   5.19083   1.29649 
 H                    -2.95012   4.08535  -0.05946 
 C                    -4.39542   3.81592   1.51243 
 H                    -4.65577   2.80967   1.1636 
 H                    -4.41022   3.77943   2.609 
 C                    -5.42966   4.81502   1.01907 
 H                    -6.43586   4.54397   1.34974 
 H                    -5.439     4.85753  -0.07397 
 H                    -5.21592   5.82222   1.39111 
 C                    -3.39952   1.61826  -1.38958 
 H                    -2.49784   2.08412  -1.77398 
 C                    -4.6557    1.96125  -1.86365 
 H                    -4.72572   2.72262  -2.63285 
 C                    -5.83438   1.34136  -1.40166 
 C                    -5.73151   0.35464  -0.4162 
 H                    -6.61675  -0.15141  -0.05056 
 C                    -4.48433  -0.00017   0.07796 
 C                    -3.31537   0.63143  -0.40897 
 C                    -2.60171  -0.86641   1.04515 
 C                    -4.01619  -1.0131    1.00392 
 C                    -4.63568  -2.08045   1.61894 
 H                    -5.71129  -2.20026   1.55332 
 C                    -3.84326  -3.06217   2.27446 
 C                    -2.46827  -2.90306   2.32231 
 H                    -1.8617   -3.62609   2.85271 
 C                    -1.79336  -1.78347   1.77259 
 C                    -7.17249   1.72575  -2.02782 
 C                    -8.34376   0.97236  -1.39838 
 H                    -8.25294  -0.10883  -1.53851 
 H                    -9.27682   1.28964  -1.87214 
 H                    -8.42806   1.17736  -0.32693 
 C                    -7.41961   3.2293   -1.85012 
 H                    -7.4717    3.4916   -0.79031 
 H                    -8.36703   3.51109  -2.32036 
 H                    -6.62869   3.82903  -2.30758 
 C                    -7.1336    1.3895   -3.52622 
 H                    -6.34116   1.93719  -4.04251 
 H                    -8.08686   1.65333  -3.99539 
 H                    -6.9591    0.32082  -3.6799 
 C                    -4.54549  -4.26038   2.90165 
 C                    -3.57087  -5.22837   3.5701 
 H                    -2.84961  -5.63449   2.85493 
 H                    -4.12735  -6.06856   3.99471 
 H                    -3.01836  -4.74973   4.38358 
 C                    -5.30238  -5.02142   1.80207 
 H                    -6.05607  -4.39572   1.31751 
 H                    -5.81187  -5.89021   2.23073 
 H                    -4.61136  -5.37488   1.03112 
 C                    -5.54059  -3.76581   3.96119 
 H                    -5.02116  -3.22142   4.75489 
 H                    -6.06123  -4.61643   4.41231 
 H                    -6.29403  -3.09992   3.533 
 C                    -0.37121  -1.60901   1.87225 
 C                     0.53572  -2.67136   1.62648 
 H                     0.14541  -3.67386   1.47465 
 C                     1.87494  -2.43163   1.45436 
 H                     2.54664  -3.23353   1.17256 
 C                     2.4115   -1.12206   1.59968 
 C                     1.53214  -0.09652   2.02122 
 H                     1.94047   0.88921   2.20588 
 C                     0.18021  -0.32142   2.10436 
 H                    -0.48272   0.48166   2.41 
 C                     3.75736  -0.80614   1.2379 
 C                     5.69506  -1.34669   0.18736 
 C                     5.40266   0.73982   1.00329 
 C                     6.51374  -2.32616  -0.56467 
 C                     6.03128  -3.61487  -0.80843 
 H                     5.05513  -3.87933  -0.41925 
 C                     6.79003  -4.52407  -1.53044 
 H                     6.40724  -5.52328  -1.71214 
 C                     8.04196  -4.15911  -2.01925 
 H                     8.6355   -4.87121  -2.58341 
 C                     8.52862  -2.8788   -1.77923 
 H                     9.50453  -2.59002  -2.15602 
 C                     7.77014  -1.96706  -1.05683 
 H                     8.13191  -0.96527  -0.85964 
 C                     5.88295   2.12807   1.18406 
 C                     7.11183   2.5286    0.65804 
 H                     7.71813   1.79013   0.14738 
 C                     7.53442   3.8462    0.78368 
 H                     8.49071   4.14787   0.36858 
 C                     6.73721   4.7774    1.43982 
 H                     7.06883   5.80597   1.53857 
 C                     5.51307   4.38138   1.9749 
 H                     4.89026   5.10178   2.49623 
 C                     5.08897   3.06749   1.84747 
 H                     4.1366    2.74115   2.24829 
 
 Stoichiometry    C61H62N8Pd
 Framework group  C1[X(C61H62N8Pd)]
 Deg. of freedom   390
 Full point group                 C1      NOp   1
 Largest Abelian subgroup         C1      NOp   1
 Largest concise Abelian subgroup C1      NOp   1
                         Standard orientation:                         
 ---------------------------------------------------------------------
 Center     Atomic      Atomic             Coordinates (Angstroms)
 Number     Number       Type             X           Y           Z
 ---------------------------------------------------------------------
      1         46           0       -0.215182    0.609554   -0.481352
      2          7           0        0.001324   -2.354856   -1.738576
      3          7           0        1.703658   -1.065135   -1.863116
      4          7           0        1.184449    3.118745   -0.047531
      5          7           0       -0.630602    3.408926    1.052541
      6          7           0       -2.180057    0.099173    0.169574
      7          7           0        4.203809    0.455977    1.464414
      8          7           0        6.212327   -0.114507    0.346291
      9          7           0        4.511341   -1.747324    0.610533
     10          6           0       -4.779262   -1.995178   -3.127656
     11          1           0       -4.765819   -0.921790   -2.917540
     12          1           0       -5.794491   -2.357630   -2.942620
     13          1           0       -4.563574   -2.132720   -4.192292
     14          6           0       -3.763014   -2.722699   -2.260510
     15          1           0       -3.807485   -3.801895   -2.455163
     16          1           0       -4.021864   -2.588150   -1.204221
     17          6           0       -2.345670   -2.219960   -2.492802
     18          1           0       -2.311360   -1.135027   -2.350147
     19          1           0       -2.038217   -2.414578   -3.527549
     20          6           0       -1.349303   -2.860008   -1.541372
     21          1           0       -1.633828   -2.674196   -0.505744
     22          1           0       -1.310915   -3.942923   -1.683133
     23          6           0        1.023226   -3.080311   -2.323154
     24          1           0        0.892876   -4.105404   -2.626783
     25          6           0        2.103448   -2.266282   -2.396390
     26          1           0        3.100924   -2.445873   -2.759390
     27          6           0        0.404839   -1.108145   -1.436850
     28          6           0        2.386638    0.158583   -1.699492
     29          6           0        1.579282    1.099079   -1.086415
     30          6           0        2.104968    2.343835   -0.791053
     31          6           0        3.400298    2.690333   -1.148055
     32          1           0        3.824679    3.657449   -0.904507
     33          6           0        4.177799    1.728611   -1.792195
     34          1           0        5.201849    1.969002   -2.051766
     35          6           0        3.693732    0.449870   -2.064596
     36          1           0        4.337899   -0.289714   -2.526562
     37          6           0       -0.022430    2.536055    0.229114
     38          6           0        1.319974    4.326396    0.596152
     39          1           0        2.206966    4.933042    0.524493
     40          6           0        0.169209    4.514396    1.286606
     41          1           0       -0.145089    5.326620    1.920602
     42          6           0       -1.954284    3.214485    1.622786
     43          1           0       -1.881663    3.345237    2.706846
     44          1           0       -2.222066    2.176000    1.428964
     45          6           0       -2.991292    4.154747    1.032933
     46          1           0       -2.744838    5.190831    1.296494
     47          1           0       -2.950121    4.085350   -0.059455
     48          6           0       -4.395423    3.815924    1.512431
     49          1           0       -4.655771    2.809674    1.163602
     50          1           0       -4.410223    3.779429    2.609004
     51          6           0       -5.429663    4.815017    1.019074
     52          1           0       -6.435855    4.543965    1.349743
     53          1           0       -5.438996    4.857530   -0.073965
     54          1           0       -5.215917    5.822223    1.391109
     55          6           0       -3.399516    1.618258   -1.389583
     56          1           0       -2.497840    2.084117   -1.773977
     57          6           0       -4.655696    1.961249   -1.863645
     58          1           0       -4.725716    2.722618   -2.632848
     59          6           0       -5.834382    1.341357   -1.401661
     60          6           0       -5.731509    0.354638   -0.416195
     61          1           0       -6.616747   -0.151410   -0.050560
     62          6           0       -4.484333   -0.000172    0.077957
     63          6           0       -3.315371    0.631432   -0.408969
     64          6           0       -2.601711   -0.866407    1.045148
     65          6           0       -4.016190   -1.013100    1.003916
     66          6           0       -4.635677   -2.080454    1.618937
     67          1           0       -5.711292   -2.200257    1.553318
     68          6           0       -3.843263   -3.062170    2.274456
     69          6           0       -2.468266   -2.903062    2.322311
     70          1           0       -1.861702   -3.626091    2.852710
     71          6           0       -1.793358   -1.783472    1.772593
     72          6           0       -7.172487    1.725752   -2.027824
     73          6           0       -8.343764    0.972362   -1.398378
     74          1           0       -8.252936   -0.108834   -1.538513
     75          1           0       -9.276821    1.289635   -1.872144
     76          1           0       -8.428062    1.177358   -0.326926
     77          6           0       -7.419614    3.229296   -1.850122
     78          1           0       -7.471703    3.491599   -0.790314
     79          1           0       -8.367032    3.511088   -2.320355
     80          1           0       -6.628694    3.829029   -2.307579
     81          6           0       -7.133602    1.389502   -3.526217
     82          1           0       -6.341161    1.937187   -4.042508
     83          1           0       -8.086862    1.653327   -3.995389
     84          1           0       -6.959100    0.320817   -3.679896
     85          6           0       -4.545489   -4.260383    2.901653
     86          6           0       -3.570865   -5.228367    3.570100
     87          1           0       -2.849614   -5.634493    2.854930
     88          1           0       -4.127345   -6.068564    3.994713
     89          1           0       -3.018361   -4.749729    4.383584
     90          6           0       -5.302384   -5.021425    1.802073
     91          1           0       -6.056070   -4.395722    1.317506
     92          1           0       -5.811874   -5.890207    2.230730
     93          1           0       -4.611361   -5.374878    1.031124
     94          6           0       -5.540593   -3.765806    3.961191
     95          1           0       -5.021164   -3.221423    4.754886
     96          1           0       -6.061225   -4.616427    4.412306
     97          1           0       -6.294028   -3.099920    3.532999
     98          6           0       -0.371211   -1.609012    1.872249
     99          6           0        0.535721   -2.671356    1.626477
    100          1           0        0.145412   -3.673857    1.474653
    101          6           0        1.874943   -2.431626    1.454355
    102          1           0        2.546642   -3.233532    1.172555
    103          6           0        2.411496   -1.122056    1.599679
    104          6           0        1.532140   -0.096524    2.021218
    105          1           0        1.940468    0.889214    2.205879
    106          6           0        0.180210   -0.321424    2.104358
    107          1           0       -0.482722    0.481658    2.409999
    108          6           0        3.757361   -0.806142    1.237901
    109          6           0        5.695059   -1.346685    0.187361
    110          6           0        5.402658    0.739815    1.003293
    111          6           0        6.513743   -2.326161   -0.564670
    112          6           0        6.031278   -3.614870   -0.808433
    113          1           0        5.055133   -3.879334   -0.419249
    114          6           0        6.790032   -4.524068   -1.530436
    115          1           0        6.407242   -5.523276   -1.712140
    116          6           0        8.041957   -4.159112   -2.019249
    117          1           0        8.635502   -4.871205   -2.583408
    118          6           0        8.528625   -2.878798   -1.779233
    119          1           0        9.504534   -2.590018   -2.156021
    120          6           0        7.770140   -1.967064   -1.056825
    121          1           0        8.131910   -0.965271   -0.859639
    122          6           0        5.882948    2.128066    1.184062
    123          6           0        7.111826    2.528596    0.658038
    124          1           0        7.718131    1.790129    0.147376
    125          6           0        7.534420    3.846201    0.783675
    126          1           0        8.490706    4.147873    0.368575
    127          6           0        6.737206    4.777395    1.439823
    128          1           0        7.068835    5.805972    1.538567
    129          6           0        5.513069    4.381378    1.974895
    130          1           0        4.890262    5.101781    2.496227
    131          6           0        5.088973    3.067492    1.847466
    132          1           0        4.136601    2.741149    2.248291
 ---------------------------------------------------------------------
 Rotational constants (GHZ):           0.0517380           0.0230500           0.0194188
 General basis read from cards:  (5D, 7F)
 ======================================================================================================
                                       Pseudopotential Parameters
 ======================================================================================================
  Center     Atomic      Valence      Angular      Power
  Number     Number     Electrons     Momentum     of R      Exponent        Coefficient   SO-Coeffient
 ======================================================================================================
    1         46           18
                                      G and up 
                                                     2        1.0000000        0.00000000    0.00000000
                                      S - G
                                                     2       12.4300000      240.22904000    0.00000000
                                                     2        6.1707590       35.17194300    0.00000000
                                      P - G
                                                     2       11.0800000      170.41727600    0.00000000
                                                     2        5.8295540       28.47213300    0.00000000
                                      D - G
                                                     2        9.5100000       69.01384500    0.00000000
                                                     2        4.1397810       11.75086200    0.00000000
                                      F - G
                                                     2       13.2700000      -31.92955400    0.00000000
                                                     2        6.6300000       -5.39821700    0.00000000
    2          7
                                   No pseudopotential on this center.
    3          7
                                   No pseudopotential on this center.
    4          7
                                   No pseudopotential on this center.
    5          7
                                   No pseudopotential on this center.
    6          7
                                   No pseudopotential on this center.
    7          7
                                   No pseudopotential on this center.
    8          7
                                   No pseudopotential on this center.
    9          7
                                   No pseudopotential on this center.
   10          6
                                   No pseudopotential on this center.
   11          1
                                   No pseudopotential on this center.
   12          1
                                   No pseudopotential on this center.
   13          1
                                   No pseudopotential on this center.
   14          6
                                   No pseudopotential on this center.
   15          1
                                   No pseudopotential on this center.
   16          1
                                   No pseudopotential on this center.
   17          6
                                   No pseudopotential on this center.
   18          1
                                   No pseudopotential on this center.
   19          1
                                   No pseudopotential on this center.
   20          6
                                   No pseudopotential on this center.
   21          1
                                   No pseudopotential on this center.
   22          1
                                   No pseudopotential on this center.
   23          6
                                   No pseudopotential on this center.
   24          1
                                   No pseudopotential on this center.
   25          6
                                   No pseudopotential on this center.
   26          1
                                   No pseudopotential on this center.
   27          6
                                   No pseudopotential on this center.
   28          6
                                   No pseudopotential on this center.
   29          6
                                   No pseudopotential on this center.
   30          6
                                   No pseudopotential on this center.
   31          6
                                   No pseudopotential on this center.
   32          1
                                   No pseudopotential on this center.
   33          6
                                   No pseudopotential on this center.
   34          1
                                   No pseudopotential on this center.
   35          6
                                   No pseudopotential on this center.
   36          1
                                   No pseudopotential on this center.
   37          6
                                   No pseudopotential on this center.
   38          6
                                   No pseudopotential on this center.
   39          1
                                   No pseudopotential on this center.
   40          6
                                   No pseudopotential on this center.
   41          1
                                   No pseudopotential on this center.
   42          6
                                   No pseudopotential on this center.
   43          1
                                   No pseudopotential on this center.
   44          1
                                   No pseudopotential on this center.
   45          6
                                   No pseudopotential on this center.
   46          1
                                   No pseudopotential on this center.
   47          1
                                   No pseudopotential on this center.
   48          6
                                   No pseudopotential on this center.
   49          1
                                   No pseudopotential on this center.
   50          1
                                   No pseudopotential on this center.
   51          6
                                   No pseudopotential on this center.
   52          1
                                   No pseudopotential on this center.
   53          1
                                   No pseudopotential on this center.
   54          1
                                   No pseudopotential on this center.
   55          6
                                   No pseudopotential on this center.
   56          1
                                   No pseudopotential on this center.
   57          6
                                   No pseudopotential on this center.
   58          1
                                   No pseudopotential on this center.
   59          6
                                   No pseudopotential on this center.
   60          6
                                   No pseudopotential on this center.
   61          1
                                   No pseudopotential on this center.
   62          6
                                   No pseudopotential on this center.
   63          6
                                   No pseudopotential on this center.
   64          6
                                   No pseudopotential on this center.
   65          6
                                   No pseudopotential on this center.
   66          6
                                   No pseudopotential on this center.
   67          1
                                   No pseudopotential on this center.
   68          6
                                   No pseudopotential on this center.
   69          6
                                   No pseudopotential on this center.
   70          1
                                   No pseudopotential on this center.
   71          6
                                   No pseudopotential on this center.
   72          6
                                   No pseudopotential on this center.
   73          6
                                   No pseudopotential on this center.
   74          1
                                   No pseudopotential on this center.
   75          1
                                   No pseudopotential on this center.
   76          1
                                   No pseudopotential on this center.
   77          6
                                   No pseudopotential on this center.
   78          1
                                   No pseudopotential on this center.
   79          1
                                   No pseudopotential on this center.
   80          1
                                   No pseudopotential on this center.
   81          6
                                   No pseudopotential on this center.
   82          1
                                   No pseudopotential on this center.
   83          1
                                   No pseudopotential on this center.
   84          1
                                   No pseudopotential on this center.
   85          6
                                   No pseudopotential on this center.
   86          6
                                   No pseudopotential on this center.
   87          1
                                   No pseudopotential on this center.
   88          1
                                   No pseudopotential on this center.
   89          1
                                   No pseudopotential on this center.
   90          6
                                   No pseudopotential on this center.
   91          1
                                   No pseudopotential on this center.
   92          1
                                   No pseudopotential on this center.
   93          1
                                   No pseudopotential on this center.
   94          6
                                   No pseudopotential on this center.
   95          1
                                   No pseudopotential on this center.
   96          1
                                   No pseudopotential on this center.
   97          1
                                   No pseudopotential on this center.
   98          6
                                   No pseudopotential on this center.
   99          6
                                   No pseudopotential on this center.
  100          1
                                   No pseudopotential on this center.
  101          6
                                   No pseudopotential on this center.
  102          1
                                   No pseudopotential on this center.
  103          6
                                   No pseudopotential on this center.
  104          6
                                   No pseudopotential on this center.
  105          1
                                   No pseudopotential on this center.
  106          6
                                   No pseudopotential on this center.
  107          1
                                   No pseudopotential on this center.
  108          6
                                   No pseudopotential on this center.
  109          6
                                   No pseudopotential on this center.
  110          6
                                   No pseudopotential on this center.
  111          6
                                   No pseudopotential on this center.
  112          6
                                   No pseudopotential on this center.
  113          1
                                   No pseudopotential on this center.
  114          6
                                   No pseudopotential on this center.
  115          1
                                   No pseudopotential on this center.
  116          6
                                   No pseudopotential on this center.
  117          1
                                   No pseudopotential on this center.
  118          6
                                   No pseudopotential on this center.
  119          1
                                   No pseudopotential on this center.
  120          6
                                   No pseudopotential on this center.
  121          1
                                   No pseudopotential on this center.
  122          6
                                   No pseudopotential on this center.
  123          6
                                   No pseudopotential on this center.
  124          1
                                   No pseudopotential on this center.
  125          6
                                   No pseudopotential on this center.
  126          1
                                   No pseudopotential on this center.
  127          6
                                   No pseudopotential on this center.
  128          1
                                   No pseudopotential on this center.
  129          6
                                   No pseudopotential on this center.
  130          1
                                   No pseudopotential on this center.
  131          6
                                   No pseudopotential on this center.
  132          1
                                   No pseudopotential on this center.
 ======================================================================================================
 There are  1722 symmetry adapted cartesian basis functions of A   symmetry.
 There are  1650 symmetry adapted basis functions of A   symmetry.
  1650 basis functions,  2769 primitive gaussians,  1722 cartesian basis functions
   251 alpha electrons      251 beta electrons
       nuclear repulsion energy     11984.2650121596 Hartrees.
 NAtoms=  132 NActive=  132 NUniq=  132 SFac= 1.00D+00 NAtFMM=   60 NAOKFM=T Big=T
 Integral buffers will be    131072 words long.
 Regular integral format.
 Two-electron integral symmetry is turned on.
 Nuclear repulsion after empirical dispersion term =    11984.0444950416 Hartrees.
 ------------------------------------------------------------------------------
 Polarizable Continuum Model (PCM)
 =================================
 Model                : PCM.
 Atomic radii         : UFF (Universal Force Field).
 Polarization charges : Total charges.
 Charge compensation  : None.
 Solution method      : On-the-fly selection.
 Cavity type          : Scaled VdW (van der Waals Surface) (Alpha=1.100).
 Cavity algorithm     : GePol (No added spheres)
                        Default sphere list used, NSphG=  132.
                        Lebedev-Laikov grids with approx.  5.0 points / Ang**2.
                        Smoothing algorithm: York/Karplus (Gamma=1.0000).
                        Polarization charges: spherical gaussians, with
                                              point-specific exponents (IZeta= 3).
                        Self-potential: point-specific (ISelfS= 7).
                        Self-field    : sphere-specific E.n sum rule (ISelfD= 2).
 Solvent              : Toluene, Eps=   2.374100 Eps(inf)=   2.238315
 ------------------------------------------------------------------------------
 One-electron integrals computed using PRISM.
   1 Symmetry operations used in ECPInt.
 ECPInt:  NShTT=  184528 NPrTT=  747470 LenC2=  114783 LenP2D=  259668.
 LDataN:  DoStor=T MaxTD1= 6 Len=  172
 NBasis=  1650 RedAO= T EigKep=  7.58D-05  NBF=  1650
 NBsUse=  1650 1.00D-06 EigRej= -1.00D+00 NBFU=  1650
 Defaulting to unpruned grid for atomic number  46.
 ExpMin= 1.60D-02 ExpMax= 6.29D+03 ExpMxC= 9.49D+02 IAcc=3 IRadAn=         5 AccDes= 0.00D+00
 Harris functional with IExCor= 1009 and IRadAn=       5 diagonalized for initial guess.
 HarFok:  IExCor= 1009 AccDes= 0.00D+00 IRadAn=         5 IDoV= 1 UseB2=F ITyADJ=14
 ICtDFT=  3500011 ScaDFX=  1.000000  1.000000  1.000000  1.000000
 Defaulting to unpruned grid for atomic number  46.
 FoFCou: FMM=F IPFlag=           0 FMFlag=      100000 FMFlg1=        2001
         NFxFlg=           0 DoJE=T BraDBF=F KetDBF=T FulRan=T
         wScrn=  0.000000 ICntrl=       500 IOpCl=  0 I1Cent=   200000004 NGrid=           0
         NMat0=    1 NMatS0=      1 NMatT0=    0 NMatD0=    1 NMtDS0=    0 NMtDT0=    0
 Petite list used in FoFCou.
 Requested convergence on RMS density matrix=1.00D-08 within 128 cycles.
 Requested convergence on MAX density matrix=1.00D-06.
 Requested convergence on             energy=1.00D-06.
 No special actions if energy rises.
 Defaulting to unpruned grid for atomic number  46.
 Defaulting to unpruned grid for atomic number  46.
 Defaulting to unpruned grid for atomic number  46.
 Defaulting to unpruned grid for atomic number  46.
 Defaulting to unpruned grid for atomic number  46.
 Defaulting to unpruned grid for atomic number  46.
 Defaulting to unpruned grid for atomic number  46.
 Defaulting to unpruned grid for atomic number  46.
 Defaulting to unpruned grid for atomic number  46.
 Defaulting to unpruned grid for atomic number  46.
 Defaulting to unpruned grid for atomic number  46.
 Defaulting to unpruned grid for atomic number  46.
 Defaulting to unpruned grid for atomic number  46.
 Defaulting to unpruned grid for atomic number  46.
 Defaulting to unpruned grid for atomic number  46.
 Defaulting to unpruned grid for atomic number  46.
 Defaulting to unpruned grid for atomic number  46.
 Defaulting to unpruned grid for atomic number  46.
 Defaulting to unpruned grid for atomic number  46.
 Defaulting to unpruned grid for atomic number  46.
 Defaulting to unpruned grid for atomic number  46.
 Defaulting to unpruned grid for atomic number  46.
 Defaulting to unpruned grid for atomic number  46.
 Defaulting to unpruned grid for atomic number  46.
 Defaulting to unpruned grid for atomic number  46.
 Defaulting to unpruned grid for atomic number  46.
 Defaulting to unpruned grid for atomic number  46.
 Defaulting to unpruned grid for atomic number  46.
 Defaulting to unpruned grid for atomic number  46.
 Defaulting to unpruned grid for atomic number  46.
 Defaulting to unpruned grid for atomic number  46.
 Defaulting to unpruned grid for atomic number  46.
 Defaulting to unpruned grid for atomic number  46.
 Defaulting to unpruned grid for atomic number  46.
 Defaulting to unpruned grid for atomic number  46.
 Defaulting to unpruned grid for atomic number  46.
 Defaulting to unpruned grid for atomic number  46.
 Defaulting to unpruned grid for atomic number  46.
 Defaulting to unpruned grid for atomic number  46.
 Defaulting to unpruned grid for atomic number  46.
 Defaulting to unpruned grid for atomic number  46.
 Defaulting to unpruned grid for atomic number  46.
 Defaulting to unpruned grid for atomic number  46.
 Defaulting to unpruned grid for atomic number  46.
 Defaulting to unpruned grid for atomic number  46.
 Defaulting to unpruned grid for atomic number  46.
 Defaulting to unpruned grid for atomic number  46.
 Defaulting to unpruned grid for atomic number  46.
 Defaulting to unpruned grid for atomic number  46.
 Defaulting to unpruned grid for atomic number  46.
 Defaulting to unpruned grid for atomic number  46.
 Defaulting to unpruned grid for atomic number  46.
 Defaulting to unpruned grid for atomic number  46.
 Defaulting to unpruned grid for atomic number  46.
 Defaulting to unpruned grid for atomic number  46.
 Defaulting to unpruned grid for atomic number  46.
 Defaulting to unpruned grid for atomic number  46.
 Defaulting to unpruned grid for atomic number  46.
 Defaulting to unpruned grid for atomic number  46.
 Defaulting to unpruned grid for atomic number  46.
 Defaulting to unpruned grid for atomic number  46.
 Defaulting to unpruned grid for atomic number  46.
 Defaulting to unpruned grid for atomic number  46.
 Defaulting to unpruned grid for atomic number  46.
 Defaulting to unpruned grid for atomic number  46.
 Defaulting to unpruned grid for atomic number  46.
 Defaulting to unpruned grid for atomic number  46.
 Defaulting to unpruned grid for atomic number  46.
 Defaulting to unpruned grid for atomic number  46.
 Defaulting to unpruned grid for atomic number  46.
 Defaulting to unpruned grid for atomic number  46.
 Defaulting to unpruned grid for atomic number  46.
 Defaulting to unpruned grid for atomic number  46.
 Defaulting to unpruned grid for atomic number  46.
 Defaulting to unpruned grid for atomic number  46.
 Defaulting to unpruned grid for atomic number  46.
 Defaulting to unpruned grid for atomic number  46.
 Defaulting to unpruned grid for atomic number  46.
 Defaulting to unpruned grid for atomic number  46.
 Defaulting to unpruned grid for atomic number  46.
 Defaulting to unpruned grid for atomic number  46.
 Defaulting to unpruned grid for atomic number  46.
 Defaulting to unpruned grid for atomic number  46.
 Defaulting to unpruned grid for atomic number  46.
 Defaulting to unpruned grid for atomic number  46.
 Defaulting to unpruned grid for atomic number  46.
 Defaulting to unpruned grid for atomic number  46.
 Defaulting to unpruned grid for atomic number  46.
 Defaulting to unpruned grid for atomic number  46.
 Defaulting to unpruned grid for atomic number  46.
 Defaulting to unpruned grid for atomic number  46.
 Defaulting to unpruned grid for atomic number  46.
 Defaulting to unpruned grid for atomic number  46.
 Defaulting to unpruned grid for atomic number  46.
 Defaulting to unpruned grid for atomic number  46.
 Defaulting to unpruned grid for atomic number  46.
 Inv3:  Mode=1 IEnd=   170735808.
 Iteration    1 A*A^-1 deviation from unit magnitude is 3.77D-15 for   2931.
 Iteration    1 A*A^-1 deviation from orthogonality  is 2.11D-15 for   6590    729.
 Iteration    1 A^-1*A deviation from unit magnitude is 3.44D-15 for   7162.
 Iteration    1 A^-1*A deviation from orthogonality  is 2.33D-15 for   6163   4313.
 EnCoef did    10 forward-backward iterations
 EnCoef did   100 forward-backward iterations
 Error on total polarization charges =  0.01088
 SCF Done:  E(RPBE1PBE) =  -2925.40974769     A.U. after   19 cycles
            NFock= 19  Conv=0.63D-08     -V/T= 2.0323
 DoSCS=F DFT=T ScalE2(SS,OS)=  1.000000  1.000000
 ExpMin= 1.60D-02 ExpMax= 6.29D+03 ExpMxC= 9.49D+02 IAcc=3 IRadAn=         5 AccDes= 0.00D+00
 HarFok:  IExCor=  205 AccDes= 0.00D+00 IRadAn=         5 IDoV=-2 UseB2=F ITyADJ=14
 ICtDFT= 12500011 ScaDFX=  1.000000  1.000000  1.000000  1.000000
 Defaulting to unpruned grid for atomic number  46.
 GSVD:  LWork=       -5913 too small for GESVD, short by       27740 words or       27740 for optimal perf.
 Range of M.O.s used for correlation:    74  1650
 NBasis=  1650 NAE=   251 NBE=   251 NFC=    73 NFV=     0
 NROrb=   1577 NOA=   178 NOB=   178 NVA=  1399 NVB=  1399

 **** Warning!!: The largest alpha MO coefficient is  0.14439815D+02


 **** Warning!!: The smallest alpha delta epsilon is  0.96256109D-01

 NEqPCM:  Using non-equilibrium solvation (IEInf=1, Eps=   2.3741, EpsInf=   2.2383)
 Inv3:  Mode=1 IEnd=   170735808.
 Iteration    1 A*A^-1 deviation from unit magnitude is 4.44D-15 for   5120.
 Iteration    1 A*A^-1 deviation from orthogonality  is 2.33D-15 for   5738    704.
 Iteration    1 A^-1*A deviation from unit magnitude is 4.44D-15 for   5120.
 Iteration    1 A^-1*A deviation from orthogonality  is 2.88D-15 for   5248   3956.
 Orbital symmetries:
       Occupied  (A) (A) (A) (A) (A) (A) (A) (A) (A) (A) (A) (A)
                 (A) (A) (A) (A) (A) (A) (A) (A) (A) (A) (A) (A)
                 (A) (A) (A) (A) (A) (A) (A) (A) (A) (A) (A) (A)
                 (A) (A) (A) (A) (A) (A) (A) (A) (A) (A) (A) (A)
                 (A) (A) (A) (A) (A) (A) (A) (A) (A) (A) (A) (A)
                 (A) (A) (A) (A) (A) (A) (A) (A) (A) (A) (A) (A)
                 (A) (A) (A) (A) (A) (A) (A) (A) (A) (A) (A) (A)
                 (A) (A) (A) (A) (A) (A) (A) (A) (A) (A) (A) (A)
                 (A) (A) (A) (A) (A) (A) (A) (A) (A) (A) (A) (A)
                 (A) (A) (A) (A) (A) (A) (A) (A) (A) (A) (A) (A)
                 (A) (A) (A) (A) (A) (A) (A) (A) (A) (A) (A) (A)
                 (A) (A) (A) (A) (A) (A) (A) (A) (A) (A) (A) (A)
                 (A) (A) (A) (A) (A) (A) (A) (A) (A) (A) (A) (A)
                 (A) (A) (A) (A) (A) (A) (A) (A) (A) (A) (A) (A)
                 (A) (A) (A) (A) (A) (A) (A) (A) (A) (A) (A) (A)
                 (A) (A) (A) (A) (A) (A) (A) (A) (A) (A) (A) (A)
                 (A) (A) (A) (A) (A) (A) (A) (A) (A) (A) (A) (A)
                 (A) (A) (A) (A) (A) (A) (A) (A) (A) (A) (A) (A)
                 (A) (A) (A) (A) (A) (A) (A) (A) (A) (A) (A) (A)
                 (A) (A) (A) (A) (A) (A) (A) (A) (A) (A) (A) (A)
                 (A) (A) (A) (A) (A) (A) (A) (A) (A) (A) (A)
       Virtual   (A) (A) (A) (A) (A) (A) (A) (A) (A) (A) (A) (A)
                 (A) (A) (A) (A) (A) (A) (A) (A) (A) (A) (A) (A)
                 (A) (A) (A) (A) (A) (A) (A) (A) (A) (A) (A) (A)
                 (A) (A) (A) (A) (A) (A) (A) (A) (A) (A) (A) (A)
                 (A) (A) (A) (A) (A) (A) (A) (A) (A) (A) (A) (A)
                 (A) (A) (A) (A) (A) (A) (A) (A) (A) (A) (A) (A)
                 (A) (A) (A) (A) (A) (A) (A) (A) (A) (A) (A) (A)
                 (A) (A) (A) (A) (A) (A) (A) (A) (A) (A) (A) (A)
                 (A) (A) (A) (A) (A) (A) (A) (A) (A) (A) (A) (A)
                 (A) (A) (A) (A) (A) (A) (A) (A) (A) (A) (A) (A)
                 (A) (A) (A) (A) (A) (A) (A) (A) (A) (A) (A) (A)
                 (A) (A) (A) (A) (A) (A) (A) (A) (A) (A) (A) (A)
                 (A) (A) (A) (A) (A) (A) (A) (A) (A) (A) (A) (A)
                 (A) (A) (A) (A) (A) (A) (A) (A) (A) (A) (A) (A)
                 (A) (A) (A) (A) (A) (A) (A) (A) (A) (A) (A) (A)
                 (A) (A) (A) (A) (A) (A) (A) (A) (A) (A) (A) (A)
                 (A) (A) (A) (A) (A) (A) (A) (A) (A) (A) (A) (A)
                 (A) (A) (A) (A) (A) (A) (A) (A) (A) (A) (A) (A)
                 (A) (A) (A) (A) (A) (A) (A) (A) (A) (A) (A) (A)
                 (A) (A) (A) (A) (A) (A) (A) (A) (A) (A) (A) (A)
                 (A) (A) (A) (A) (A) (A) (A) (A) (A) (A) (A) (A)
                 (A) (A) (A) (A) (A) (A) (A) (A) (A) (A) (A) (A)
                 (A) (A) (A) (A) (A) (A) (A) (A) (A) (A) (A) (A)
                 (A) (A) (A) (A) (A) (A) (A) (A) (A) (A) (A) (A)
                 (A) (A) (A) (A) (A) (A) (A) (A) (A) (A) (A) (A)
                 (A) (A) (A) (A) (A) (A) (A) (A) (A) (A) (A) (A)
                 (A) (A) (A) (A) (A) (A) (A) (A) (A) (A) (A) (A)
                 (A) (A) (A) (A) (A) (A) (A) (A) (A) (A) (A) (A)
                 (A) (A) (A) (A) (A) (A) (A) (A) (A) (A) (A) (A)
                 (A) (A) (A) (A) (A) (A) (A) (A) (A) (A) (A) (A)
                 (A) (A) (A) (A) (A) (A) (A) (A) (A) (A) (A) (A)
                 (A) (A) (A) (A) (A) (A) (A) (A) (A) (A) (A) (A)
                 (A) (A) (A) (A) (A) (A) (A) (A) (A) (A) (A) (A)
                 (A) (A) (A) (A) (A) (A) (A) (A) (A) (A) (A) (A)
                 (A) (A) (A) (A) (A) (A) (A) (A) (A) (A) (A) (A)
                 (A) (A) (A) (A) (A) (A) (A) (A) (A) (A) (A) (A)
                 (A) (A) (A) (A) (A) (A) (A) (A) (A) (A) (A) (A)
                 (A) (A) (A) (A) (A) (A) (A) (A) (A) (A) (A) (A)
                 (A) (A) (A) (A) (A) (A) (A) (A) (A) (A) (A) (A)
                 (A) (A) (A) (A) (A) (A) (A) (A) (A) (A) (A) (A)
                 (A) (A) (A) (A) (A) (A) (A) (A) (A) (A) (A) (A)
                 (A) (A) (A) (A) (A) (A) (A) (A) (A) (A) (A) (A)
                 (A) (A) (A) (A) (A) (A) (A) (A) (A) (A) (A) (A)
                 (A) (A) (A) (A) (A) (A) (A) (A) (A) (A) (A) (A)
                 (A) (A) (A) (A) (A) (A) (A) (A) (A) (A) (A) (A)
                 (A) (A) (A) (A) (A) (A) (A) (A) (A) (A) (A) (A)
                 (A) (A) (A) (A) (A) (A) (A) (A) (A) (A) (A) (A)
                 (A) (A) (A) (A) (A) (A) (A) (A) (A) (A) (A) (A)
                 (A) (A) (A) (A) (A) (A) (A) (A) (A) (A) (A) (A)
                 (A) (A) (A) (A) (A) (A) (A) (A) (A) (A) (A) (A)
                 (A) (A) (A) (A) (A) (A) (A) (A) (A) (A) (A) (A)
                 (A) (A) (A) (A) (A) (A) (A) (A) (A) (A) (A) (A)
                 (A) (A) (A) (A) (A) (A) (A) (A) (A) (A) (A) (A)
                 (A) (A) (A) (A) (A) (A) (A) (A) (A) (A) (A) (A)
                 (A) (A) (A) (A) (A) (A) (A) (A) (A) (A) (A) (A)
                 (A) (A) (A) (A) (A) (A) (A) (A) (A) (A) (A) (A)
                 (A) (A) (A) (A) (A) (A) (A) (A) (A) (A) (A) (A)
                 (A) (A) (A) (A) (A) (A) (A) (A) (A) (A) (A) (A)
                 (A) (A) (A) (A) (A) (A) (A) (A) (A) (A) (A) (A)
                 (A) (A) (A) (A) (A) (A) (A) (A) (A) (A) (A) (A)
                 (A) (A) (A) (A) (A) (A) (A) (A) (A) (A) (A) (A)
                 (A) (A) (A) (A) (A) (A) (A) (A) (A) (A) (A) (A)
                 (A) (A) (A) (A) (A) (A) (A) (A) (A) (A) (A) (A)
                 (A) (A) (A) (A) (A) (A) (A) (A) (A) (A) (A) (A)
                 (A) (A) (A) (A) (A) (A) (A) (A) (A) (A) (A) (A)
                 (A) (A) (A) (A) (A) (A) (A) (A) (A) (A) (A) (A)
                 (A) (A) (A) (A) (A) (A) (A) (A) (A) (A) (A) (A)
                 (A) (A) (A) (A) (A) (A) (A) (A) (A) (A) (A) (A)
                 (A) (A) (A) (A) (A) (A) (A) (A) (A) (A) (A) (A)
                 (A) (A) (A) (A) (A) (A) (A) (A) (A) (A) (A) (A)
                 (A) (A) (A) (A) (A) (A) (A) (A) (A) (A) (A) (A)
                 (A) (A) (A) (A) (A) (A) (A) (A) (A) (A) (A) (A)
                 (A) (A) (A) (A) (A) (A) (A) (A) (A) (A) (A) (A)
                 (A) (A) (A) (A) (A) (A) (A) (A) (A) (A) (A) (A)
                 (A) (A) (A) (A) (A) (A) (A) (A) (A) (A) (A) (A)
                 (A) (A) (A) (A) (A) (A) (A) (A) (A) (A) (A) (A)
                 (A) (A) (A) (A) (A) (A) (A) (A) (A) (A) (A) (A)
                 (A) (A) (A) (A) (A) (A) (A) (A) (A) (A) (A) (A)
                 (A) (A) (A) (A) (A) (A) (A) (A) (A) (A) (A) (A)
                 (A) (A) (A) (A) (A) (A) (A) (A) (A) (A) (A) (A)
                 (A) (A) (A) (A) (A) (A) (A) (A) (A) (A) (A) (A)
                 (A) (A) (A) (A) (A) (A) (A) (A) (A) (A) (A) (A)
                 (A) (A) (A) (A) (A) (A) (A) (A) (A) (A) (A) (A)
                 (A) (A) (A) (A) (A) (A) (A) (A) (A) (A) (A) (A)
                 (A) (A) (A) (A) (A) (A) (A) (A) (A) (A) (A) (A)
                 (A) (A) (A) (A) (A) (A) (A) (A) (A) (A) (A) (A)
                 (A) (A) (A) (A) (A) (A) (A) (A) (A) (A) (A) (A)
                 (A) (A) (A) (A) (A) (A) (A) (A) (A) (A) (A) (A)
                 (A) (A) (A) (A) (A) (A) (A) (A) (A) (A) (A) (A)
                 (A) (A) (A) (A) (A) (A) (A) (A) (A) (A) (A) (A)
                 (A) (A) (A) (A) (A) (A) (A) (A) (A) (A) (A) (A)
                 (A) (A) (A) (A) (A) (A) (A) (A) (A) (A) (A) (A)
                 (A) (A) (A) (A) (A) (A) (A) (A) (A) (A) (A) (A)
                 (A) (A) (A) (A) (A) (A) (A) (A) (A) (A) (A) (A)
                 (A) (A) (A) (A) (A) (A) (A) (A) (A) (A) (A) (A)
                 (A) (A) (A) (A) (A) (A) (A) (A) (A) (A) (A) (A)
                 (A) (A) (A) (A) (A) (A) (A) (A) (A) (A) (A) (A)
                 (A) (A) (A) (A) (A) (A) (A) (A) (A) (A) (A) (A)
                 (A) (A) (A) (A) (A) (A) (A) (A) (A) (A) (A) (A)
                 (A) (A) (A) (A) (A) (A) (A) (A) (A) (A) (A) (A)
                 (A) (A) (A) (A) (A) (A) (A) (A) (A) (A) (A) (A)
                 (A) (A) (A) (A) (A) (A) (A) (A) (A) (A) (A) (A)
                 (A) (A) (A) (A) (A) (A) (A) (A) (A) (A) (A) (A)
                 (A) (A) (A) (A) (A) (A) (A) (A) (A) (A) (A) (A)
                 (A) (A) (A) (A) (A) (A) (A) (A) (A) (A) (A) (A)
                 (A) (A) (A) (A) (A) (A) (A) (A) (A) (A) (A) (A)
                 (A) (A) (A) (A) (A) (A) (A) (A) (A) (A) (A) (A)
                 (A) (A) (A) (A) (A) (A) (A) (A) (A) (A) (A) (A)
                 (A) (A) (A) (A) (A) (A) (A) (A) (A) (A) (A) (A)
                 (A) (A) (A) (A) (A) (A) (A) (A) (A) (A) (A) (A)
                 (A) (A) (A) (A) (A) (A) (A) (A) (A) (A) (A) (A)
                 (A) (A) (A) (A) (A) (A) (A) (A) (A) (A) (A) (A)
                 (A) (A) (A) (A) (A) (A) (A) (A) (A) (A) (A) (A)
                 (A) (A) (A) (A) (A) (A) (A) (A) (A) (A) (A) (A)
                 (A) (A) (A) (A) (A) (A) (A) (A) (A) (A) (A) (A)
                 (A) (A) (A) (A) (A) (A) (A) (A) (A) (A) (A) (A)
                 (A) (A) (A) (A) (A) (A) (A)
    20 initial guesses have been made.
 Convergence on wavefunction:    0.001000000000000
 Iteration     1 Dimension    20 NMult     0 NNew     20
 CISAX will form    20 AO SS matrices at one time.
 Defaulting to unpruned grid for atomic number  46.
 Defaulting to unpruned grid for atomic number  46.
 Defaulting to unpruned grid for atomic number  46.
 Defaulting to unpruned grid for atomic number  46.
 Defaulting to unpruned grid for atomic number  46.
 Defaulting to unpruned grid for atomic number  46.
 Defaulting to unpruned grid for atomic number  46.
 Defaulting to unpruned grid for atomic number  46.
 Defaulting to unpruned grid for atomic number  46.
 Defaulting to unpruned grid for atomic number  46.
 Defaulting to unpruned grid for atomic number  46.
 Defaulting to unpruned grid for atomic number  46.
 Defaulting to unpruned grid for atomic number  46.
 Defaulting to unpruned grid for atomic number  46.
 Defaulting to unpruned grid for atomic number  46.
 Defaulting to unpruned grid for atomic number  46.
 Defaulting to unpruned grid for atomic number  46.
 Defaulting to unpruned grid for atomic number  46.
 Defaulting to unpruned grid for atomic number  46.
 Defaulting to unpruned grid for atomic number  46.
 Defaulting to unpruned grid for atomic number  46.
 Defaulting to unpruned grid for atomic number  46.
 Defaulting to unpruned grid for atomic number  46.
 Defaulting to unpruned grid for atomic number  46.
 Defaulting to unpruned grid for atomic number  46.
 Defaulting to unpruned grid for atomic number  46.
 Defaulting to unpruned grid for atomic number  46.
 Defaulting to unpruned grid for atomic number  46.
 Defaulting to unpruned grid for atomic number  46.
 Defaulting to unpruned grid for atomic number  46.
 Defaulting to unpruned grid for atomic number  46.
 Defaulting to unpruned grid for atomic number  46.
 Defaulting to unpruned grid for atomic number  46.
 Defaulting to unpruned grid for atomic number  46.
 Defaulting to unpruned grid for atomic number  46.
 Defaulting to unpruned grid for atomic number  46.
 Defaulting to unpruned grid for atomic number  46.
 Defaulting to unpruned grid for atomic number  46.
 Defaulting to unpruned grid for atomic number  46.
 Defaulting to unpruned grid for atomic number  46.
 Defaulting to unpruned grid for atomic number  46.
 Defaulting to unpruned grid for atomic number  46.
 Defaulting to unpruned grid for atomic number  46.
 Defaulting to unpruned grid for atomic number  46.
 Defaulting to unpruned grid for atomic number  46.
 Defaulting to unpruned grid for atomic number  46.
 Defaulting to unpruned grid for atomic number  46.
 Defaulting to unpruned grid for atomic number  46.
 Defaulting to unpruned grid for atomic number  46.
 Defaulting to unpruned grid for atomic number  46.
 Defaulting to unpruned grid for atomic number  46.
 Defaulting to unpruned grid for atomic number  46.
 Defaulting to unpruned grid for atomic number  46.
 Defaulting to unpruned grid for atomic number  46.
 Defaulting to unpruned grid for atomic number  46.
 Defaulting to unpruned grid for atomic number  46.
 Defaulting to unpruned grid for atomic number  46.
 Defaulting to unpruned grid for atomic number  46.
 Defaulting to unpruned grid for atomic number  46.
 Defaulting to unpruned grid for atomic number  46.
 Defaulting to unpruned grid for atomic number  46.
 Defaulting to unpruned grid for atomic number  46.
 Defaulting to unpruned grid for atomic number  46.
 Defaulting to unpruned grid for atomic number  46.
 Defaulting to unpruned grid for atomic number  46.
 Defaulting to unpruned grid for atomic number  46.
 Defaulting to unpruned grid for atomic number  46.
 Defaulting to unpruned grid for atomic number  46.
 Defaulting to unpruned grid for atomic number  46.
 Defaulting to unpruned grid for atomic number  46.
 Defaulting to unpruned grid for atomic number  46.
 Defaulting to unpruned grid for atomic number  46.
 Defaulting to unpruned grid for atomic number  46.
 Defaulting to unpruned grid for atomic number  46.
 Defaulting to unpruned grid for atomic number  46.
 Defaulting to unpruned grid for atomic number  46.
 Defaulting to unpruned grid for atomic number  46.
 Defaulting to unpruned grid for atomic number  46.
 Defaulting to unpruned grid for atomic number  46.
 Defaulting to unpruned grid for atomic number  46.
 Defaulting to unpruned grid for atomic number  46.
 Defaulting to unpruned grid for atomic number  46.
 Defaulting to unpruned grid for atomic number  46.
 Defaulting to unpruned grid for atomic number  46.
 Defaulting to unpruned grid for atomic number  46.
 Defaulting to unpruned grid for atomic number  46.
 Defaulting to unpruned grid for atomic number  46.
 Defaulting to unpruned grid for atomic number  46.
 Defaulting to unpruned grid for atomic number  46.
 Defaulting to unpruned grid for atomic number  46.
 Defaulting to unpruned grid for atomic number  46.
 Defaulting to unpruned grid for atomic number  46.
 Defaulting to unpruned grid for atomic number  46.
 Defaulting to unpruned grid for atomic number  46.
 Defaulting to unpruned grid for atomic number  46.
 Defaulting to unpruned grid for atomic number  46.
 New state      3 was old state      4
 New state      4 was old state      6
 New state      5 was old state      3
 Iteration     2 Dimension    30 NMult    20 NNew     10
 Iteration     3 Dimension    40 NMult    30 NNew     10
 Iteration     4 Dimension    50 NMult    40 NNew     10
 Iteration     5 Dimension    58 NMult    50 NNew      8
 Iteration     6 Dimension    66 NMult    58 NNew      8
 Iteration     7 Dimension    72 NMult    66 NNew      6
 Iteration     8 Dimension    78 NMult    72 NNew      6
 Iteration     9 Dimension    84 NMult    78 NNew      6
 ***********************************************************************
 Excited states from <AA,BB:AA,BB> singles matrix:
 ***********************************************************************
 
 Ground to excited state transition densities written to RWF  633
 Ground to excited state transition electric dipole moments (Au):
       state          X           Y           Z        Dip. S.      Osc.
         1        -0.0000     -0.0000     -0.0000      0.0000      0.0000
         2        -0.0000     -0.0000     -0.0000      0.0000      0.0000
         3        -0.0000     -0.0000     -0.0000      0.0000      0.0000
         4        -0.0000     -0.0000     -0.0000      0.0000      0.0000
         5        -0.0000     -0.0000     -0.0000      0.0000      0.0000
 Ground to excited state transition velocity dipole moments (Au):
       state          X           Y           Z        Dip. S.      Osc.
         1         0.0000      0.0000      0.0000      0.0000      0.0000
         2         0.0000      0.0000      0.0000      0.0000      0.0000
         3         0.0000      0.0000      0.0000      0.0000      0.0000
         4         0.0000      0.0000      0.0000      0.0000      0.0000
         5         0.0000      0.0000      0.0000      0.0000      0.0000
 Ground to excited state transition magnetic dipole moments (Au):
       state          X           Y           Z
         1         0.0000      0.0000      0.0000
         2         0.0000      0.0000      0.0000
         3         0.0000      0.0000      0.0000
         4         0.0000      0.0000      0.0000
         5         0.0000      0.0000      0.0000
 Ground to excited state transition velocity quadrupole moments (Au):
       state          XX          YY          ZZ          XY          XZ          YZ
         1         0.0000      0.0000      0.0000      0.0000      0.0000      0.0000
         2         0.0000      0.0000      0.0000      0.0000      0.0000      0.0000
         3         0.0000      0.0000      0.0000      0.0000      0.0000      0.0000
         4         0.0000      0.0000      0.0000      0.0000      0.0000      0.0000
         5         0.0000      0.0000      0.0000      0.0000      0.0000      0.0000
 <0|del|b> * <b|rxdel|0> + <0|del|b> * <b|delr+rdel|0>
 Rotatory Strengths (R) in cgs (10**-40 erg-esu-cm/Gauss)
       state          XX          YY          ZZ    R(velocity)    E-M Angle
         1         0.0000      0.0000      0.0000      0.0000       90.00
         2         0.0000      0.0000      0.0000      0.0000       90.00
         3         0.0000      0.0000      0.0000      0.0000       90.00
         4         0.0000      0.0000      0.0000      0.0000       90.00
         5         0.0000      0.0000      0.0000      0.0000       90.00
 1/2[<0|r|b>*<b|rxdel|0> + (<0|rxdel|b>*<b|r|0>)*]
 Rotatory Strengths (R) in cgs (10**-40 erg-esu-cm/Gauss)
       state          XX          YY          ZZ     R(length)
         1         0.0000      0.0000      0.0000      0.0000
         2         0.0000      0.0000      0.0000      0.0000
         3         0.0000      0.0000      0.0000      0.0000
         4         0.0000      0.0000      0.0000      0.0000
         5         0.0000      0.0000      0.0000      0.0000
  1/2[<0|del|b>*<b|r|0> + (<0|r|b>*<b|del|0>)*] (Au)
       state          X           Y           Z        Dip. S.   Osc.(frdel)
         1        -0.0000     -0.0000     -0.0000      0.0000      0.0000
         2        -0.0000     -0.0000     -0.0000      0.0000      0.0000
         3        -0.0000     -0.0000     -0.0000      0.0000      0.0000
         4        -0.0000     -0.0000     -0.0000      0.0000      0.0000
         5        -0.0000     -0.0000     -0.0000      0.0000      0.0000

 Excitation energies and oscillator strengths:
 
 Excited State   1:      Triplet-A      1.7336 eV  715.17 nm  f=0.0000  <S**2>=2.000
     246 -> 252       -0.11725
     251 -> 252        0.65609
     251 -> 254        0.12085
     251 -> 255       -0.11983
 This state for optimization and/or second-order correction.
 Total Energy, E(TD-HF/TD-DFT) =  -2925.34603777    
 Copying the excited state density for this state as the 1-particle RhoCI density.
 
 Excited State   2:      Triplet-A      2.4282 eV  510.59 nm  f=0.0000  <S**2>=2.000
     251 -> 253        0.70015
 
 Excited State   3:      Triplet-A      2.6270 eV  471.95 nm  f=0.0000  <S**2>=2.000
     245 -> 252       -0.17111
     246 -> 252       -0.23480
     249 -> 252        0.44586
     250 -> 252       -0.27174
     251 -> 252       -0.17228
 
 Excited State   4:      Triplet-A      2.6892 eV  461.04 nm  f=0.0000  <S**2>=2.000
     251 -> 252        0.15625
     251 -> 254       -0.30356
     251 -> 255        0.39028
     251 -> 256       -0.11337
     251 -> 257       -0.36934
     251 -> 259       -0.15156
 
 Excited State   5:      Triplet-A      2.8032 eV  442.30 nm  f=0.0000  <S**2>=2.000
     249 -> 252        0.35020
     250 -> 252        0.45910
     250 -> 254        0.12851
     250 -> 255       -0.18345
     250 -> 257        0.16124
     251 -> 255       -0.10053
     251 -> 257        0.10685
     251 -> 262        0.10919
 SavETr:  write IOETrn=   770 NScale= 10 NData=  16 NLR=1 NState=    5 LETran=     100.
 Hyperfine terms turned off by default for NAtoms > 100.

 **********************************************************************

            Population analysis using the SCF Density.

 **********************************************************************

 Orbital symmetries:
       Occupied  (A) (A) (A) (A) (A) (A) (A) (A) (A) (A) (A) (A)
                 (A) (A) (A) (A) (A) (A) (A) (A) (A) (A) (A) (A)
                 (A) (A) (A) (A) (A) (A) (A) (A) (A) (A) (A) (A)
                 (A) (A) (A) (A) (A) (A) (A) (A) (A) (A) (A) (A)
                 (A) (A) (A) (A) (A) (A) (A) (A) (A) (A) (A) (A)
                 (A) (A) (A) (A) (A) (A) (A) (A) (A) (A) (A) (A)
                 (A) (A) (A) (A) (A) (A) (A) (A) (A) (A) (A) (A)
                 (A) (A) (A) (A) (A) (A) (A) (A) (A) (A) (A) (A)
                 (A) (A) (A) (A) (A) (A) (A) (A) (A) (A) (A) (A)
                 (A) (A) (A) (A) (A) (A) (A) (A) (A) (A) (A) (A)
                 (A) (A) (A) (A) (A) (A) (A) (A) (A) (A) (A) (A)
                 (A) (A) (A) (A) (A) (A) (A) (A) (A) (A) (A) (A)
                 (A) (A) (A) (A) (A) (A) (A) (A) (A) (A) (A) (A)
                 (A) (A) (A) (A) (A) (A) (A) (A) (A) (A) (A) (A)
                 (A) (A) (A) (A) (A) (A) (A) (A) (A) (A) (A) (A)
                 (A) (A) (A) (A) (A) (A) (A) (A) (A) (A) (A) (A)
                 (A) (A) (A) (A) (A) (A) (A) (A) (A) (A) (A) (A)
                 (A) (A) (A) (A) (A) (A) (A) (A) (A) (A) (A) (A)
                 (A) (A) (A) (A) (A) (A) (A) (A) (A) (A) (A) (A)
                 (A) (A) (A) (A) (A) (A) (A) (A) (A) (A) (A) (A)
                 (A) (A) (A) (A) (A) (A) (A) (A) (A) (A) (A)
       Virtual   (A) (A) (A) (A) (A) (A) (A) (A) (A) (A) (A) (A)
                 (A) (A) (A) (A) (A) (A) (A) (A) (A) (A) (A) (A)
                 (A) (A) (A) (A) (A) (A) (A) (A) (A) (A) (A) (A)
                 (A) (A) (A) (A) (A) (A) (A) (A) (A) (A) (A) (A)
                 (A) (A) (A) (A) (A) (A) (A) (A) (A) (A) (A) (A)
                 (A) (A) (A) (A) (A) (A) (A) (A) (A) (A) (A) (A)
                 (A) (A) (A) (A) (A) (A) (A) (A) (A) (A) (A) (A)
                 (A) (A) (A) (A) (A) (A) (A) (A) (A) (A) (A) (A)
                 (A) (A) (A) (A) (A) (A) (A) (A) (A) (A) (A) (A)
                 (A) (A) (A) (A) (A) (A) (A) (A) (A) (A) (A) (A)
                 (A) (A) (A) (A) (A) (A) (A) (A) (A) (A) (A) (A)
                 (A) (A) (A) (A) (A) (A) (A) (A) (A) (A) (A) (A)
                 (A) (A) (A) (A) (A) (A) (A) (A) (A) (A) (A) (A)
                 (A) (A) (A) (A) (A) (A) (A) (A) (A) (A) (A) (A)
                 (A) (A) (A) (A) (A) (A) (A) (A) (A) (A) (A) (A)
                 (A) (A) (A) (A) (A) (A) (A) (A) (A) (A) (A) (A)
                 (A) (A) (A) (A) (A) (A) (A) (A) (A) (A) (A) (A)
                 (A) (A) (A) (A) (A) (A) (A) (A) (A) (A) (A) (A)
                 (A) (A) (A) (A) (A) (A) (A) (A) (A) (A) (A) (A)
                 (A) (A) (A) (A) (A) (A) (A) (A) (A) (A) (A) (A)
                 (A) (A) (A) (A) (A) (A) (A) (A) (A) (A) (A) (A)
                 (A) (A) (A) (A) (A) (A) (A) (A) (A) (A) (A) (A)
                 (A) (A) (A) (A) (A) (A) (A) (A) (A) (A) (A) (A)
                 (A) (A) (A) (A) (A) (A) (A) (A) (A) (A) (A) (A)
                 (A) (A) (A) (A) (A) (A) (A) (A) (A) (A) (A) (A)
                 (A) (A) (A) (A) (A) (A) (A) (A) (A) (A) (A) (A)
                 (A) (A) (A) (A) (A) (A) (A) (A) (A) (A) (A) (A)
                 (A) (A) (A) (A) (A) (A) (A) (A) (A) (A) (A) (A)
                 (A) (A) (A) (A) (A) (A) (A) (A) (A) (A) (A) (A)
                 (A) (A) (A) (A) (A) (A) (A) (A) (A) (A) (A) (A)
                 (A) (A) (A) (A) (A) (A) (A) (A) (A) (A) (A) (A)
                 (A) (A) (A) (A) (A) (A) (A) (A) (A) (A) (A) (A)
                 (A) (A) (A) (A) (A) (A) (A) (A) (A) (A) (A) (A)
                 (A) (A) (A) (A) (A) (A) (A) (A) (A) (A) (A) (A)
                 (A) (A) (A) (A) (A) (A) (A) (A) (A) (A) (A) (A)
                 (A) (A) (A) (A) (A) (A) (A) (A) (A) (A) (A) (A)
                 (A) (A) (A) (A) (A) (A) (A) (A) (A) (A) (A) (A)
                 (A) (A) (A) (A) (A) (A) (A) (A) (A) (A) (A) (A)
                 (A) (A) (A) (A) (A) (A) (A) (A) (A) (A) (A) (A)
                 (A) (A) (A) (A) (A) (A) (A) (A) (A) (A) (A) (A)
                 (A) (A) (A) (A) (A) (A) (A) (A) (A) (A) (A) (A)
                 (A) (A) (A) (A) (A) (A) (A) (A) (A) (A) (A) (A)
                 (A) (A) (A) (A) (A) (A) (A) (A) (A) (A) (A) (A)
                 (A) (A) (A) (A) (A) (A) (A) (A) (A) (A) (A) (A)
                 (A) (A) (A) (A) (A) (A) (A) (A) (A) (A) (A) (A)
                 (A) (A) (A) (A) (A) (A) (A) (A) (A) (A) (A) (A)
                 (A) (A) (A) (A) (A) (A) (A) (A) (A) (A) (A) (A)
                 (A) (A) (A) (A) (A) (A) (A) (A) (A) (A) (A) (A)
                 (A) (A) (A) (A) (A) (A) (A) (A) (A) (A) (A) (A)
                 (A) (A) (A) (A) (A) (A) (A) (A) (A) (A) (A) (A)
                 (A) (A) (A) (A) (A) (A) (A) (A) (A) (A) (A) (A)
                 (A) (A) (A) (A) (A) (A) (A) (A) (A) (A) (A) (A)
                 (A) (A) (A) (A) (A) (A) (A) (A) (A) (A) (A) (A)
                 (A) (A) (A) (A) (A) (A) (A) (A) (A) (A) (A) (A)
                 (A) (A) (A) (A) (A) (A) (A) (A) (A) (A) (A) (A)
                 (A) (A) (A) (A) (A) (A) (A) (A) (A) (A) (A) (A)
                 (A) (A) (A) (A) (A) (A) (A) (A) (A) (A) (A) (A)
                 (A) (A) (A) (A) (A) (A) (A) (A) (A) (A) (A) (A)
                 (A) (A) (A) (A) (A) (A) (A) (A) (A) (A) (A) (A)
                 (A) (A) (A) (A) (A) (A) (A) (A) (A) (A) (A) (A)
                 (A) (A) (A) (A) (A) (A) (A) (A) (A) (A) (A) (A)
                 (A) (A) (A) (A) (A) (A) (A) (A) (A) (A) (A) (A)
                 (A) (A) (A) (A) (A) (A) (A) (A) (A) (A) (A) (A)
                 (A) (A) (A) (A) (A) (A) (A) (A) (A) (A) (A) (A)
                 (A) (A) (A) (A) (A) (A) (A) (A) (A) (A) (A) (A)
                 (A) (A) (A) (A) (A) (A) (A) (A) (A) (A) (A) (A)
                 (A) (A) (A) (A) (A) (A) (A) (A) (A) (A) (A) (A)
                 (A) (A) (A) (A) (A) (A) (A) (A) (A) (A) (A) (A)
                 (A) (A) (A) (A) (A) (A) (A) (A) (A) (A) (A) (A)
                 (A) (A) (A) (A) (A) (A) (A) (A) (A) (A) (A) (A)
                 (A) (A) (A) (A) (A) (A) (A) (A) (A) (A) (A) (A)
                 (A) (A) (A) (A) (A) (A) (A) (A) (A) (A) (A) (A)
                 (A) (A) (A) (A) (A) (A) (A) (A) (A) (A) (A) (A)
                 (A) (A) (A) (A) (A) (A) (A) (A) (A) (A) (A) (A)
                 (A) (A) (A) (A) (A) (A) (A) (A) (A) (A) (A) (A)
                 (A) (A) (A) (A) (A) (A) (A) (A) (A) (A) (A) (A)
                 (A) (A) (A) (A) (A) (A) (A) (A) (A) (A) (A) (A)
                 (A) (A) (A) (A) (A) (A) (A) (A) (A) (A) (A) (A)
                 (A) (A) (A) (A) (A) (A) (A) (A) (A) (A) (A) (A)
                 (A) (A) (A) (A) (A) (A) (A) (A) (A) (A) (A) (A)
                 (A) (A) (A) (A) (A) (A) (A) (A) (A) (A) (A) (A)
                 (A) (A) (A) (A) (A) (A) (A) (A) (A) (A) (A) (A)
                 (A) (A) (A) (A) (A) (A) (A) (A) (A) (A) (A) (A)
                 (A) (A) (A) (A) (A) (A) (A) (A) (A) (A) (A) (A)
                 (A) (A) (A) (A) (A) (A) (A) (A) (A) (A) (A) (A)
                 (A) (A) (A) (A) (A) (A) (A) (A) (A) (A) (A) (A)
                 (A) (A) (A) (A) (A) (A) (A) (A) (A) (A) (A) (A)
                 (A) (A) (A) (A) (A) (A) (A) (A) (A) (A) (A) (A)
                 (A) (A) (A) (A) (A) (A) (A) (A) (A) (A) (A) (A)
                 (A) (A) (A) (A) (A) (A) (A) (A) (A) (A) (A) (A)
                 (A) (A) (A) (A) (A) (A) (A) (A) (A) (A) (A) (A)
                 (A) (A) (A) (A) (A) (A) (A) (A) (A) (A) (A) (A)
                 (A) (A) (A) (A) (A) (A) (A) (A) (A) (A) (A) (A)
                 (A) (A) (A) (A) (A) (A) (A) (A) (A) (A) (A) (A)
                 (A) (A) (A) (A) (A) (A) (A) (A) (A) (A) (A) (A)
                 (A) (A) (A) (A) (A) (A) (A) (A) (A) (A) (A) (A)
                 (A) (A) (A) (A) (A) (A) (A) (A) (A) (A) (A) (A)
                 (A) (A) (A) (A) (A) (A) (A) (A) (A) (A) (A) (A)
                 (A) (A) (A) (A) (A) (A) (A) (A) (A) (A) (A) (A)
                 (A) (A) (A) (A) (A) (A) (A) (A) (A) (A) (A) (A)
                 (A) (A) (A) (A) (A) (A) (A) (A) (A) (A) (A) (A)
                 (A) (A) (A) (A) (A) (A) (A) (A) (A) (A) (A) (A)
                 (A) (A) (A) (A) (A) (A) (A) (A) (A) (A) (A) (A)
                 (A) (A) (A) (A) (A) (A) (A) (A) (A) (A) (A) (A)
                 (A) (A) (A) (A) (A) (A) (A) (A) (A) (A) (A) (A)
                 (A) (A) (A) (A) (A) (A) (A) (A) (A) (A) (A) (A)
                 (A) (A) (A) (A) (A) (A) (A) (A) (A) (A) (A) (A)
                 (A) (A) (A) (A) (A) (A) (A) (A) (A) (A) (A) (A)
                 (A) (A) (A) (A) (A) (A) (A) (A) (A) (A) (A) (A)
                 (A) (A) (A) (A) (A) (A) (A) (A) (A) (A) (A) (A)
                 (A) (A) (A) (A) (A) (A) (A) (A) (A) (A) (A) (A)
                 (A) (A) (A) (A) (A) (A) (A) (A) (A) (A) (A) (A)
                 (A) (A) (A) (A) (A) (A) (A) (A) (A) (A) (A) (A)
                 (A) (A) (A) (A) (A) (A) (A) (A) (A) (A) (A) (A)
                 (A) (A) (A) (A) (A) (A) (A) (A) (A) (A) (A) (A)
                 (A) (A) (A) (A) (A) (A) (A) (A) (A) (A) (A) (A)
                 (A) (A) (A) (A) (A) (A) (A)
 The electronic state is 1-A.
 Alpha  occ. eigenvalues --  -14.45909 -14.45791 -14.45579 -14.45294 -14.38347
 Alpha  occ. eigenvalues --  -14.38198 -14.38128 -14.35759 -10.31203 -10.30916
 Alpha  occ. eigenvalues --  -10.30837 -10.28891 -10.28466 -10.27254 -10.27029
 Alpha  occ. eigenvalues --  -10.26867 -10.26789 -10.26696 -10.26589 -10.26079
 Alpha  occ. eigenvalues --  -10.25724 -10.24287 -10.24070 -10.23983 -10.23682
 Alpha  occ. eigenvalues --  -10.23602 -10.23536 -10.23411 -10.23323 -10.23265
 Alpha  occ. eigenvalues --  -10.23261 -10.23222 -10.23199 -10.23191 -10.23178
 Alpha  occ. eigenvalues --  -10.23165 -10.23153 -10.23035 -10.23023 -10.22995
 Alpha  occ. eigenvalues --  -10.22991 -10.22887 -10.22805 -10.22791 -10.22548
 Alpha  occ. eigenvalues --  -10.22545 -10.22052 -10.21994 -10.21858 -10.21410
 Alpha  occ. eigenvalues --  -10.21336 -10.21168 -10.21089 -10.21015 -10.20998
 Alpha  occ. eigenvalues --  -10.20755 -10.20741 -10.20710 -10.20540 -10.20381
 Alpha  occ. eigenvalues --  -10.20295 -10.20197 -10.20106 -10.20039 -10.19937
 Alpha  occ. eigenvalues --  -10.19910 -10.19816 -10.19761 -10.19381  -3.50069
 Alpha  occ. eigenvalues --   -2.17758  -2.17500  -2.14441  -1.09031  -1.08645
 Alpha  occ. eigenvalues --   -1.05169  -0.98184  -0.97546  -0.96369  -0.93975
 Alpha  occ. eigenvalues --   -0.93268  -0.89210  -0.88939  -0.88908  -0.88743
 Alpha  occ. eigenvalues --   -0.87063  -0.86559  -0.84061  -0.83306  -0.82941
 Alpha  occ. eigenvalues --   -0.82021  -0.81231  -0.80775  -0.80587  -0.79612
 Alpha  occ. eigenvalues --   -0.79119  -0.78053  -0.77851  -0.77844  -0.77548
 Alpha  occ. eigenvalues --   -0.77252  -0.76669  -0.75646  -0.75017  -0.74890
 Alpha  occ. eigenvalues --   -0.72687  -0.71961  -0.70632  -0.69988  -0.69973
 Alpha  occ. eigenvalues --   -0.69834  -0.69782  -0.69208  -0.69183  -0.69055
 Alpha  occ. eigenvalues --   -0.67758  -0.65503  -0.65437  -0.64163  -0.64064
 Alpha  occ. eigenvalues --   -0.63735  -0.63109  -0.62724  -0.61575  -0.61386
 Alpha  occ. eigenvalues --   -0.60721  -0.60467  -0.60312  -0.59914  -0.59464
 Alpha  occ. eigenvalues --   -0.59430  -0.58559  -0.58117  -0.57425  -0.56456
 Alpha  occ. eigenvalues --   -0.56175  -0.56007  -0.54070  -0.53797  -0.53624
 Alpha  occ. eigenvalues --   -0.52476  -0.51364  -0.51148  -0.50675  -0.50612
 Alpha  occ. eigenvalues --   -0.50361  -0.50091  -0.49647  -0.49390  -0.48951
 Alpha  occ. eigenvalues --   -0.48774  -0.48338  -0.47919  -0.47811  -0.47683
 Alpha  occ. eigenvalues --   -0.47431  -0.47090  -0.46860  -0.46767  -0.46595
 Alpha  occ. eigenvalues --   -0.46278  -0.46212  -0.46103  -0.45913  -0.45076
 Alpha  occ. eigenvalues --   -0.44910  -0.44743  -0.44686  -0.44660  -0.44359
 Alpha  occ. eigenvalues --   -0.44196  -0.44108  -0.44000  -0.43659  -0.43526
 Alpha  occ. eigenvalues --   -0.43328  -0.43065  -0.42841  -0.42710  -0.42232
 Alpha  occ. eigenvalues --   -0.42055  -0.41921  -0.41308  -0.41028  -0.40760
 Alpha  occ. eigenvalues --   -0.40745  -0.40477  -0.40240  -0.39998  -0.39952
 Alpha  occ. eigenvalues --   -0.39418  -0.39125  -0.39091  -0.38721  -0.38632
 Alpha  occ. eigenvalues --   -0.38605  -0.38413  -0.38129  -0.37764  -0.37633
 Alpha  occ. eigenvalues --   -0.37576  -0.37164  -0.36990  -0.36967  -0.36699
 Alpha  occ. eigenvalues --   -0.36595  -0.36425  -0.36186  -0.35939  -0.35829
 Alpha  occ. eigenvalues --   -0.35664  -0.35510  -0.34955  -0.34868  -0.34633
 Alpha  occ. eigenvalues --   -0.34555  -0.34389  -0.34103  -0.33901  -0.33591
 Alpha  occ. eigenvalues --   -0.33450  -0.33243  -0.33035  -0.32669  -0.32558
 Alpha  occ. eigenvalues --   -0.32291  -0.31936  -0.31691  -0.31610  -0.31094
 Alpha  occ. eigenvalues --   -0.30444  -0.29913  -0.28584  -0.28557  -0.28138
 Alpha  occ. eigenvalues --   -0.27935  -0.27582  -0.27513  -0.27485  -0.26933
 Alpha  occ. eigenvalues --   -0.26636  -0.26452  -0.26274  -0.25663  -0.25617
 Alpha  occ. eigenvalues --   -0.23403  -0.23256  -0.22872  -0.21688  -0.21136
 Alpha  occ. eigenvalues --   -0.17403
 Alpha virt. eigenvalues --   -0.07777  -0.06749  -0.03443  -0.03075  -0.02578
 Alpha virt. eigenvalues --   -0.01448  -0.00935  -0.00881  -0.00185   0.01101
 Alpha virt. eigenvalues --    0.01469   0.01577   0.02122   0.02437   0.02859
 Alpha virt. eigenvalues --    0.03458   0.03805   0.03876   0.04226   0.04319
 Alpha virt. eigenvalues --    0.04874   0.05221   0.05560   0.05599   0.05983
 Alpha virt. eigenvalues --    0.06239   0.06520   0.06614   0.06949   0.07106
 Alpha virt. eigenvalues --    0.07421   0.07839   0.08063   0.08143   0.08483
 Alpha virt. eigenvalues --    0.08750   0.09107   0.09310   0.09501   0.09755
 Alpha virt. eigenvalues --    0.10241   0.10335   0.10546   0.10791   0.10934
 Alpha virt. eigenvalues --    0.11117   0.11272   0.11355   0.11691   0.11828
 Alpha virt. eigenvalues --    0.12011   0.12127   0.12405   0.12701   0.13068
 Alpha virt. eigenvalues --    0.13253   0.13535   0.13717   0.13854   0.13940
 Alpha virt. eigenvalues --    0.14324   0.14357   0.14772   0.14866   0.14990
 Alpha virt. eigenvalues --    0.15066   0.15502   0.15765   0.15818   0.16193
 Alpha virt. eigenvalues --    0.16415   0.16600   0.16807   0.16896   0.17043
 Alpha virt. eigenvalues --    0.17277   0.17405   0.17512   0.17614   0.17911
 Alpha virt. eigenvalues --    0.17946   0.18125   0.18297   0.18641   0.18764
 Alpha virt. eigenvalues --    0.19007   0.19218   0.19403   0.19517   0.19834
 Alpha virt. eigenvalues --    0.19867   0.20095   0.20344   0.20498   0.21004
 Alpha virt. eigenvalues --    0.21250   0.21325   0.21469   0.21670   0.21850
 Alpha virt. eigenvalues --    0.22185   0.22320   0.22463   0.22694   0.23048
 Alpha virt. eigenvalues --    0.23177   0.23353   0.23434   0.23544   0.23986
 Alpha virt. eigenvalues --    0.24236   0.24440   0.24540   0.24869   0.25243
 Alpha virt. eigenvalues --    0.25428   0.25576   0.25696   0.25781   0.25861
 Alpha virt. eigenvalues --    0.26003   0.26202   0.26515   0.26630   0.26663
 Alpha virt. eigenvalues --    0.26996   0.27207   0.27456   0.27601   0.27771
 Alpha virt. eigenvalues --    0.27880   0.28181   0.28343   0.28728   0.28870
 Alpha virt. eigenvalues --    0.29145   0.29357   0.29543   0.29989   0.30145
 Alpha virt. eigenvalues --    0.30291   0.30483   0.30622   0.30749   0.30980
[...]
 Alpha virt. eigenvalues --    2.21375   2.21654   2.21930   2.22140   2.22419
 Alpha virt. eigenvalues --    2.22505   2.23486   2.23692   2.24626   2.25296
 Alpha virt. eigenvalues --    2.25513   2.25596   2.26091   2.26830   2.27100
 Alpha virt. eigenvalues --    2.27578   2.28089   2.28662   2.28955   2.29338
 Alpha virt. eigenvalues --    2.29801   2.30862   2.31205   2.31506   2.32028
 Alpha virt. eigenvalues --    2.32438   2.32930   2.33209   2.33448   2.33513
 Alpha virt. eigenvalues --    2.33993   2.34573   2.34740   2.34913   2.35370
 Alpha virt. eigenvalues --    2.35569   2.36221   2.36408   2.36451   2.36723
 Alpha virt. eigenvalues --    2.36966   2.38340   2.38639   2.38965   2.39506
 Alpha virt. eigenvalues --    2.39847   2.40128   2.40325   2.40418   2.40788
 Alpha virt. eigenvalues --    2.41003   2.41374   2.41828   2.42065   2.42647
 Alpha virt. eigenvalues --    2.42887   2.43159   2.43611   2.43967   2.44456
 Alpha virt. eigenvalues --    2.44588   2.44823   2.45018   2.45277   2.45345
 Alpha virt. eigenvalues --    2.45730   2.46088   2.46465   2.46877   2.47309
 Alpha virt. eigenvalues --    2.47367   2.48965   2.49463   2.49553   2.49896
 Alpha virt. eigenvalues --    2.50081   2.50620   2.51003   2.51512   2.51677
 Alpha virt. eigenvalues --    2.51832   2.52146   2.52315   2.52442   2.52808
 Alpha virt. eigenvalues --    2.52918   2.53303   2.53979   2.54100   2.54255
 Alpha virt. eigenvalues --    2.54461   2.54623   2.54799   2.54961   2.55160
 Alpha virt. eigenvalues --    2.55553   2.55593   2.55728   2.56539   2.57170
 Alpha virt. eigenvalues --    2.57450   2.57698   2.57843   2.58125   2.58480
 Alpha virt. eigenvalues --    2.58523   2.58667   2.59356   2.59510   2.59640
 Alpha virt. eigenvalues --    2.59795   2.60089   2.60685   2.60791   2.60924
 Alpha virt. eigenvalues --    2.61057   2.61262   2.61397   2.61548   2.61862
 Alpha virt. eigenvalues --    2.62005   2.62104   2.62427   2.62750   2.62940
 Alpha virt. eigenvalues --    2.63118   2.63383   2.63651   2.63858   2.63975
 Alpha virt. eigenvalues --    2.64480   2.64774   2.64952   2.65214   2.65603
 Alpha virt. eigenvalues --    2.65994   2.66118   2.66344   2.66538   2.67055
 Alpha virt. eigenvalues --    2.67261   2.67388   2.67692   2.67941   2.68305
 Alpha virt. eigenvalues --    2.68554   2.68980   2.69161   2.69386   2.69657
 Alpha virt. eigenvalues --    2.70064   2.70256   2.70579   2.70772   2.70890
 Alpha virt. eigenvalues --    2.71042   2.71132   2.71588   2.71757   2.72180
 Alpha virt. eigenvalues --    2.72396   2.72752   2.72800   2.73238   2.73373
 Alpha virt. eigenvalues --    2.73760   2.73878   2.74020   2.74181   2.74729
 Alpha virt. eigenvalues --    2.74819   2.75166   2.75198   2.75381   2.75718
 Alpha virt. eigenvalues --    2.75849   2.76559   2.76621   2.76834   2.77111
 Alpha virt. eigenvalues --    2.77203   2.77351   2.77505   2.77909   2.78560
 Alpha virt. eigenvalues --    2.78710   2.79202   2.79459   2.79788   2.80082
 Alpha virt. eigenvalues --    2.80413   2.80654   2.80723   2.81244   2.81710
 Alpha virt. eigenvalues --    2.82198   2.82307   2.82578   2.82716   2.83456
 Alpha virt. eigenvalues --    2.83734   2.84079   2.84332   2.84591   2.85288
 Alpha virt. eigenvalues --    2.85305   2.85734   2.86063   2.86552   2.86824
 Alpha virt. eigenvalues --    2.86901   2.87311   2.87591   2.88004   2.88401
 Alpha virt. eigenvalues --    2.89200   2.89636   2.89770   2.89896   2.90120
 Alpha virt. eigenvalues --    2.90990   2.91321   2.91602   2.92034   2.92868
 Alpha virt. eigenvalues --    2.93010   2.93106   2.93527   2.94051   2.94633
 Alpha virt. eigenvalues --    2.94813   2.94997   2.95071   2.95446   2.96196
 Alpha virt. eigenvalues --    2.96589   2.97036   2.97709   2.98238   2.98431
 Alpha virt. eigenvalues --    2.99078   2.99463   2.99750   3.00625   3.01137
 Alpha virt. eigenvalues --    3.01229   3.02129   3.02552   3.02603   3.03043
 Alpha virt. eigenvalues --    3.03552   3.04612   3.04927   3.05073   3.05331
 Alpha virt. eigenvalues --    3.06075   3.06938   3.07149   3.08012   3.08171
 Alpha virt. eigenvalues --    3.08557   3.09260   3.09441   3.09838   3.09908
 Alpha virt. eigenvalues --    3.10311   3.10652   3.10999   3.12051   3.12483
 Alpha virt. eigenvalues --    3.13577   3.15928   3.16517   3.16631   3.16987
 Alpha virt. eigenvalues --    3.17094   3.18468   3.19268   3.20475   3.20619
 Alpha virt. eigenvalues --    3.22254   3.22657   3.22937   3.23520   3.23836
 Alpha virt. eigenvalues --    3.24035   3.24642   3.25357   3.25803   3.26491
 Alpha virt. eigenvalues --    3.27420   3.28182   3.28461   3.28956   3.29501
 Alpha virt. eigenvalues --    3.30534   3.31166   3.31794   3.32086   3.33429
 Alpha virt. eigenvalues --    3.34608   3.35375   3.36337   3.37607   3.38429
 Alpha virt. eigenvalues --    3.39057   3.39283   3.40013   3.41295   3.41569
 Alpha virt. eigenvalues --    3.42464   3.43574   3.43813   3.44167   3.45973
 Alpha virt. eigenvalues --    3.46203   3.46864   3.48872   3.49037   3.49762
 Alpha virt. eigenvalues --    3.50484   3.51112   3.51267   3.51433   3.52097
 Alpha virt. eigenvalues --    3.53424   3.53512   3.54146   3.57067   3.57908
 Alpha virt. eigenvalues --    3.60157   3.60809   3.63256   3.63496   3.63866
 Alpha virt. eigenvalues --    3.64107   3.65148   3.65301   3.66298   3.67537
 Alpha virt. eigenvalues --    3.68852   3.69764   3.70253   3.71030   3.72150
 Alpha virt. eigenvalues --    3.73043   3.73865   3.74783   3.75902   3.76425
 Alpha virt. eigenvalues --    3.76981   3.77338   3.78555   3.80251   3.80476
 Alpha virt. eigenvalues --    3.80554   3.80835   3.81930   3.82122   3.82505
 Alpha virt. eigenvalues --    3.83095   3.83541   3.84124   3.84200   3.84413
 Alpha virt. eigenvalues --    3.84822   3.84996   3.85467   3.85698   3.85943
 Alpha virt. eigenvalues --    3.86184   3.86603   3.87630   3.87800   3.88706
 Alpha virt. eigenvalues --    3.89177   3.89308   3.89367   3.89871   3.90382
 Alpha virt. eigenvalues --    3.90635   3.91549   3.92452   3.93708   3.94972
 Alpha virt. eigenvalues --    3.96172   3.96377   3.99181   4.00073   4.00506
 Alpha virt. eigenvalues --    4.01304   4.02751   4.03524   4.04350   4.04550
 Alpha virt. eigenvalues --    4.06461   4.07076   4.10664   4.12203   4.13038
 Alpha virt. eigenvalues --    4.13552   4.14545   4.14676   4.14794   4.15844
 Alpha virt. eigenvalues --    4.16246   4.17696   4.18387   4.19177   4.20217
 Alpha virt. eigenvalues --    4.22242   4.22925   4.24015   4.26116   4.26692
 Alpha virt. eigenvalues --    4.28092   4.28585   4.29376   4.30588   4.32188
 Alpha virt. eigenvalues --    4.33117   4.33328   4.33607   4.39054   4.40268
 Alpha virt. eigenvalues --    4.44029   4.47374   4.55826   4.56437   4.59737
 Alpha virt. eigenvalues --    4.63024   4.68267   4.71357   4.72889   4.77991
 Alpha virt. eigenvalues --    4.84375   4.86882   4.86940   4.87904   4.89591
 Alpha virt. eigenvalues --    4.93505   5.01062   5.02175   5.08466   5.15139
 Alpha virt. eigenvalues --    5.17978   5.19772   5.29948   5.30768   5.31294
 Alpha virt. eigenvalues --    5.36834  23.63658  23.66442  23.68750  23.69617
 Alpha virt. eigenvalues --   23.78787  23.82454  23.84530  23.86295  23.92167
 Alpha virt. eigenvalues --   23.92548  23.93044  23.94218  23.94867  23.95982
 Alpha virt. eigenvalues --   23.98042  23.98700  23.99241  23.99801  24.00545
 Alpha virt. eigenvalues --   24.00830  24.01741  24.03074  24.03769  24.03801
 Alpha virt. eigenvalues --   24.04185  24.04508  24.04901  24.05269  24.05613
 Alpha virt. eigenvalues --   24.05671  24.05968  24.06018  24.06338  24.06496
 Alpha virt. eigenvalues --   24.07817  24.08238  24.08632  24.09037  24.09815
 Alpha virt. eigenvalues --   24.11222  24.11929  24.12966  24.16168  24.17639
 Alpha virt. eigenvalues --   24.17878  24.18741  24.20673  24.21285  24.21318
 Alpha virt. eigenvalues --   24.21974  24.23581  24.25645  24.26179  24.28749
 Alpha virt. eigenvalues --   24.29414  24.29714  24.30282  24.30368  24.30767
 Alpha virt. eigenvalues --   24.31380  24.32784  35.62958  35.65399  35.69231
 Alpha virt. eigenvalues --   35.73843  35.77537  35.82674  35.83827  35.84411
 Alpha virt. eigenvalues --   40.37166  40.82407  40.95859  52.17326
          Condensed to atoms (all electrons):
 Mulliken charges:
               1
     1  Pd   0.979192
     2  N   -0.379250
     3  N   -0.422317
     4  N   -0.427115
     5  N   -0.379672
     6  N   -0.691410
     7  N   -0.413592
     8  N   -0.429481
     9  N   -0.419126
    10  C   -0.358268
    11  H    0.169583
    12  H    0.115754
    13  H    0.111477
    14  C   -0.288261
    15  H    0.116118
    16  H    0.172267
    17  C   -0.274471
    18  H    0.187878
    19  H    0.128123
    20  C   -0.103688
    21  H    0.203659
    22  H    0.130332
    23  C   -0.005530
    24  H    0.142578
    25  C    0.020886
    26  H    0.144610
    27  C    0.111668
    28  C    0.283743
    29  C   -0.483272
    30  C    0.289242
    31  C   -0.110524
    32  H    0.115626
    33  C   -0.130126
    34  H    0.120119
    35  C   -0.130842
    36  H    0.113231
    37  C    0.104049
    38  C    0.022448
    39  H    0.146798
    40  C   -0.005265
    41  H    0.145863
    42  C   -0.137126
    43  H    0.156049
    44  H    0.205981
    45  C   -0.256621
    46  H    0.124366
    47  H    0.153697
    48  C   -0.290747
    49  H    0.182512
    50  H    0.122603
    51  C   -0.348157
    52  H    0.125634
    53  H    0.132522
    54  H    0.116062
    55  C   -0.181374
    56  H    0.133506
    57  C   -0.103058
    58  H    0.094968
    59  C   -0.002051
    60  C   -0.094031
    61  H    0.088967
    62  C   -0.110206
    63  C    0.218419
    64  C    0.198959
    65  C   -0.075669
    66  C   -0.049704
    67  H    0.093997
    68  C   -0.003364
    69  C   -0.078033
    70  H    0.102860
    71  C   -0.136274
    72  C   -0.326346
    73  C   -0.316175
    74  H    0.130758
    75  H    0.125008
    76  H    0.130969
    77  C   -0.268113
    78  H    0.133668
    79  H    0.116949
    80  H    0.118351
    81  C   -0.268575
    82  H    0.120180
    83  H    0.115803
    84  H    0.132878
    85  C   -0.337296
    86  C   -0.314414
    87  H    0.127745
    88  H    0.126326
    89  H    0.134693
    90  C   -0.260330
    91  H    0.120179
    92  H    0.117091
    93  H    0.123005
    94  C   -0.257605
    95  H    0.126907
    96  H    0.116598
    97  H    0.119893
    98  C   -0.007818
    99  C   -0.110255
   100  H    0.104912
   101  C   -0.023253
   102  H    0.119446
   103  C   -0.261118
   104  C   -0.008895
   105  H    0.141457
   106  C   -0.208261
   107  H    0.148806
   108  C    0.427201
   109  C    0.432428
   110  C    0.437525
   111  C   -0.300146
   112  C   -0.013166
   113  H    0.131599
   114  C   -0.128109
   115  H    0.114084
   116  C   -0.080312
   117  H    0.116672
   118  C   -0.126084
   119  H    0.114725
   120  C   -0.009444
   121  H    0.132529
   122  C   -0.269177
   123  C   -0.013277
   124  H    0.131553
   125  C   -0.126386
   126  H    0.114806
   127  C   -0.081368
   128  H    0.116196
   129  C   -0.131761
   130  H    0.112353
   131  C   -0.029924
   132  H    0.136594
 Sum of Mulliken charges =  -0.00000
 Mulliken charges with hydrogens summed into heavy atoms:
               1
     1  Pd   0.979192
     2  N   -0.379250
     3  N   -0.422317
     4  N   -0.427115
     5  N   -0.379672
     6  N   -0.691410
     7  N   -0.413592
     8  N   -0.429481
     9  N   -0.419126
    10  C    0.038546
    14  C    0.000125
    17  C    0.041530
    20  C    0.230303
    23  C    0.137048
    25  C    0.165497
    27  C    0.111668
    28  C    0.283743
    29  C   -0.483272
    30  C    0.289242
    31  C    0.005102
    33  C   -0.010008
    35  C   -0.017611
    37  C    0.104049
    38  C    0.169246
    40  C    0.140598
    42  C    0.224904
    45  C    0.021442
    48  C    0.014368
    51  C    0.026062
    55  C   -0.047868
    57  C   -0.008090
    59  C   -0.002051
    60  C   -0.005064
    62  C   -0.110206
    63  C    0.218419
    64  C    0.198959
    65  C   -0.075669
    66  C    0.044293
    68  C   -0.003364
    69  C    0.024827
    71  C   -0.136274
    72  C   -0.326346
    73  C    0.070561
    77  C    0.100854
    81  C    0.100286
    85  C   -0.337296
    86  C    0.074349
    90  C    0.099945
    94  C    0.105793
    98  C   -0.007818
    99  C   -0.005343
   101  C    0.096193
   103  C   -0.261118
   104  C    0.132563
   106  C   -0.059455
   108  C    0.427201
   109  C    0.432428
   110  C    0.437525
   111  C   -0.300146
   112  C    0.118433
   114  C   -0.014026
   116  C    0.036360
   118  C   -0.011359
   120  C    0.123085
   122  C   -0.269177
   123  C    0.118276
   125  C   -0.011580
   127  C    0.034829
   129  C   -0.019408
   131  C    0.106670
 Electronic spatial extent (au):  <R**2>=          57553.1678
 Charge=             -0.0000 electrons
 Dipole moment (field-independent basis, Debye):
    X=              3.5641    Y=              1.9060    Z=             -1.4795  Tot=              4.3040
 Quadrupole moment (field-independent basis, Debye-Ang):
   XX=           -417.2247   YY=           -370.3058   ZZ=           -430.6064
   XY=              5.4210   XZ=            -18.7398   YZ=             25.9541
 Traceless Quadrupole moment (field-independent basis, Debye-Ang):
   XX=            -11.1790   YY=             35.7398   ZZ=            -24.5608
   XY=              5.4210   XZ=            -18.7398   YZ=             25.9541
 Octapole moment (field-independent basis, Debye-Ang**2):
  XXX=            200.5234  YYY=            110.7581  ZZZ=            -42.3230  XYY=            128.7010
  XXY=             44.6402  XXZ=           -144.9402  XZZ=             -0.8501  YZZ=              7.6847
  YYZ=              3.9663  XYZ=             60.5340
 Hexadecapole moment (field-independent basis, Debye-Ang**3):
 XXXX=         -50641.6569 YYYY=         -18138.3548 ZZZZ=          -8621.1097 XXXY=            271.2535
 XXXZ=          -1209.8963 YYYX=            250.9635 YYYZ=            638.3448 ZZZX=            -89.2180
 ZZZY=            138.6699 XXYY=         -11234.4098 XXZZ=         -10337.7133 YYZZ=          -4442.8917
 XXYZ=            330.6219 YYXZ=           -207.2470 ZZXY=           -185.0111
 N-N= 1.198404449504D+04 E-N=-3.074347817387D+04  KE= 2.833771329396D+03
 Unable to Open any file for archive entry.
 1\1\GINC-CLUSTER\SP\RPBE1PBE TD-FC\GenECP\C61H62N8Pd1\xxxxxx\21-Jan-20
 26\0\\# td=(triplets,nstates=5) PBE1PBE/genecp scrf=(solvent=toluene) 
 em=gd3bj\\s1 opt\\0,1\Pd,0,-0.215182,0.609554,-0.481352\N,0,0.001324,-
 2.354856,-1.738576\N,0,1.703658,-1.065135,-1.863116\N,0,1.184449,3.118
 745,-0.047531\N,0,-0.630602,3.408926,1.052541\N,0,-2.180057,0.099173,0
 .169574\N,0,4.203809,0.455977,1.464414\N,0,6.212327,-0.114507,0.346291
 \N,0,4.511341,-1.747324,0.610533\C,0,-4.779262,-1.995178,-3.127656\H,0
 ,-4.765819,-0.92179,-2.91754\H,0,-5.794491,-2.35763,-2.94262\H,0,-4.56
 3574,-2.13272,-4.192292\C,0,-3.763014,-2.722699,-2.26051\H,0,-3.807485
 ,-3.801895,-2.455163\H,0,-4.021864,-2.58815,-1.204221\C,0,-2.34567,-2.
 21996,-2.492802\H,0,-2.31136,-1.135027,-2.350147\H,0,-2.038217,-2.4145
 78,-3.527549\C,0,-1.349303,-2.860008,-1.541372\H,0,-1.633828,-2.674196
 ,-0.505744\H,0,-1.310915,-3.942923,-1.683133\C,0,1.023226,-3.080311,-2
 .323154\H,0,0.892876,-4.105404,-2.626783\C,0,2.103448,-2.266282,-2.396
 39\H,0,3.100924,-2.445873,-2.75939\C,0,0.404839,-1.108145,-1.43685\C,0
 ,2.386638,0.158583,-1.699492\C,0,1.579282,1.099079,-1.086415\C,0,2.104
 968,2.343835,-0.791053\C,0,3.400298,2.690333,-1.148055\H,0,3.824679,3.
 657449,-0.904507\C,0,4.177799,1.728611,-1.792195\H,0,5.201849,1.969002
 ,-2.051766\C,0,3.693732,0.44987,-2.064596\H,0,4.337899,-0.289714,-2.52
 6562\C,0,-0.02243,2.536055,0.229114\C,0,1.319974,4.326396,0.596152\H,0
 ,2.206966,4.933042,0.524493\C,0,0.169209,4.514396,1.286606\H,0,-0.1450
 89,5.32662,1.920602\C,0,-1.954284,3.214485,1.622786\H,0,-1.881663,3.34
 5237,2.706846\H,0,-2.222066,2.176,1.428964\C,0,-2.991292,4.154747,1.03
 2933\H,0,-2.744838,5.190831,1.296494\H,0,-2.950121,4.08535,-0.059455\C
 ,0,-4.395423,3.815924,1.512431\H,0,-4.655771,2.809674,1.163602\H,0,-4.
 410223,3.779429,2.609004\C,0,-5.429663,4.815017,1.019074\H,0,-6.435855
 ,4.543965,1.349743\H,0,-5.438996,4.85753,-0.073965\H,0,-5.215917,5.822
 223,1.391109\C,0,-3.399516,1.618258,-1.389583\H,0,-2.49784,2.084117,-1
 .773977\C,0,-4.655696,1.961249,-1.863645\H,0,-4.725716,2.722618,-2.632
 848\C,0,-5.834382,1.341357,-1.401661\C,0,-5.731509,0.354638,-0.416195\
 H,0,-6.616747,-0.15141,-0.05056\C,0,-4.484333,-0.000172,0.077957\C,0,-
 3.315371,0.631432,-0.408969\C,0,-2.601711,-0.866407,1.045148\C,0,-4.01
 619,-1.0131,1.003916\C,0,-4.635677,-2.080454,1.618937\H,0,-5.711292,-2
 .200257,1.553318\C,0,-3.843263,-3.06217,2.274456\C,0,-2.468266,-2.9030
 62,2.322311\H,0,-1.861702,-3.626091,2.85271\C,0,-1.793358,-1.783472,1.
 772593\C,0,-7.172487,1.725752,-2.027824\C,0,-8.343764,0.972362,-1.3983
 78\H,0,-8.252936,-0.108834,-1.538513\H,0,-9.276821,1.289635,-1.872144\
 H,0,-8.428062,1.177358,-0.326926\C,0,-7.419614,3.229296,-1.850122\H,0,
 -7.471703,3.491599,-0.790314\H,0,-8.367032,3.511088,-2.320355\H,0,-6.6
 28694,3.829029,-2.307579\C,0,-7.133602,1.389502,-3.526217\H,0,-6.34116
 1,1.937187,-4.042508\H,0,-8.086862,1.653327,-3.995389\H,0,-6.9591,0.32
 0817,-3.679896\C,0,-4.545489,-4.260383,2.901653\C,0,-3.570865,-5.22836
 7,3.5701\H,0,-2.849614,-5.634493,2.85493\H,0,-4.127345,-6.068564,3.994
 713\H,0,-3.018361,-4.749729,4.383584\C,0,-5.302384,-5.021425,1.802073\
 H,0,-6.05607,-4.395722,1.317506\H,0,-5.811874,-5.890207,2.23073\H,0,-4
 .611361,-5.374878,1.031124\C,0,-5.540593,-3.765806,3.961191\H,0,-5.021
 164,-3.221423,4.754886\H,0,-6.061225,-4.616427,4.412306\H,0,-6.294028,
 -3.09992,3.532999\C,0,-0.371211,-1.609012,1.872249\C,0,0.535721,-2.671
 356,1.626477\H,0,0.145412,-3.673857,1.474653\C,0,1.874943,-2.431626,1.
 454355\H,0,2.546642,-3.233532,1.172555\C,0,2.411496,-1.122056,1.599679
 \C,0,1.53214,-0.096524,2.021218\H,0,1.940468,0.889214,2.205879\C,0,0.1
 8021,-0.321424,2.104358\H,0,-0.482722,0.481658,2.409999\C,0,3.757361,-
 0.806142,1.237901\C,0,5.695059,-1.346685,0.187361\C,0,5.402658,0.73981
 5,1.003293\C,0,6.513743,-2.326161,-0.56467\C,0,6.031278,-3.61487,-0.80
 8433\H,0,5.055133,-3.879334,-0.419249\C,0,6.790032,-4.524068,-1.530436
 \H,0,6.407242,-5.523276,-1.71214\C,0,8.041957,-4.159112,-2.019249\H,0,
 8.635502,-4.871205,-2.583408\C,0,8.528625,-2.878798,-1.779233\H,0,9.50
 4534,-2.590018,-2.156021\C,0,7.77014,-1.967064,-1.056825\H,0,8.13191,-
 0.965271,-0.859639\C,0,5.882948,2.128066,1.184062\C,0,7.111826,2.52859
 6,0.658038\H,0,7.718131,1.790129,0.147376\C,0,7.53442,3.846201,0.78367
 5\H,0,8.490706,4.147873,0.368575\C,0,6.737206,4.777395,1.439823\H,0,7.
 068835,5.805972,1.538567\C,0,5.513069,4.381378,1.974895\H,0,4.890262,5
 .101781,2.496227\C,0,5.088973,3.067492,1.847466\H,0,4.136601,2.741149,
 2.248291\\Version=ES64L-G16RevC.02\State=1-A\HF=-2925.4097477\RMSD=6.2
 69e-09\PG=C01 [X(C61H62N8Pd1)]\\@
 The archive entry for this job was punched.


      HUMANKIND PERIODICALLY GOES THROUGH A SPEEDUP OF ITS AFFAIRS, 
      THEREBY EXPERIENCING THE RACE BETWEEN THE RENEWABLE VITALITY
      OF THE LIVING, AND THE BECKONING VITIATION OF DECADENCE.
      IN THIS PERIODIC RACE, ANY PAUSE BECOMES A LUXURY.
      ONLY THEN CAN ONE REFLECT THAT ALL IS PERMITTED;
      ALL IS POSSIBLE.

                              -- THE APOCRYPHA OF MUAD'DIB
                                 CHILDREN OF DUNE, BY FRANK HERBERT
 Job cpu time:       1 days 10 hours  1 minutes 45.5 seconds.
 Elapsed time:       0 days  0 hours 24 minutes  3.8 seconds.
 File lengths (MBytes):  RWF=  14057 Int=      0 D2E=      0 Chk=    602 Scr=      1
 Normal termination of Gaussian 16 at Wed Jan 21 14:37:50 2026.
