 Entering Gaussian System, Link 0=g16
 Initial command:
 /public/software/g16/l1.exe "/tmp/Gau-60301.inp" -scrdir="/tmp/"
 Entering Link 1 = /public/software/g16/l1.exe PID=     60303.
  
 Copyright (c) 1988-2021, Gaussian, Inc.  All Rights Reserved.
  
 This is part of the Gaussian(R) 16 program.  It is based on
 the Gaussian(R) 09 system (copyright 2009, Gaussian, Inc.),
 the Gaussian(R) 03 system (copyright 2003, Gaussian, Inc.),
 the Gaussian(R) 98 system (copyright 1998, Gaussian, Inc.),
 the Gaussian(R) 94 system (copyright 1995, Gaussian, Inc.),
 the Gaussian 92(TM) system (copyright 1992, Gaussian, Inc.),
 the Gaussian 90(TM) system (copyright 1990, Gaussian, Inc.),
 the Gaussian 88(TM) system (copyright 1988, Gaussian, Inc.),
 the Gaussian 86(TM) system (copyright 1986, Carnegie Mellon
 University), and the Gaussian 82(TM) system (copyright 1983,
 Carnegie Mellon University). Gaussian is a federally registered
 trademark of Gaussian, Inc.
  
 This software contains proprietary and confidential information,
 including trade secrets, belonging to Gaussian, Inc.
  
 This software is provided under written license and may be
 used, copied, transmitted, or stored only in accord with that
 written license.
  
 The following legend is applicable only to US Government
 contracts under FAR:
  
                    RESTRICTED RIGHTS LEGEND
  
 Use, reproduction and disclosure by the US Government is
 subject to restrictions as set forth in subparagraphs (a)
 and (c) of the Commercial Computer Software - Restricted
 Rights clause in FAR 52.227-19.
  
 Gaussian, Inc.
 340 Quinnipiac St., Bldg. 40, Wallingford CT 06492
  
  
 ---------------------------------------------------------------
 Warning -- This program may not be used in any manner that
 competes with the business of Gaussian, Inc. or will provide
 assistance to any competitor of Gaussian, Inc.  The licensee
 of this program is prohibited from giving any competitor of
 Gaussian, Inc. access to this program.  By using this program,
 the user acknowledges that Gaussian, Inc. is engaged in the
 business of creating and licensing software in the field of
 computational chemistry and represents and warrants to the
 licensee that it is not a competitor of Gaussian, Inc. and that
 it will not use this program in any manner prohibited above.
 ---------------------------------------------------------------
  

 Cite this work as:
 Gaussian 16, Revision C.02,
 M. J. Frisch, G. W. Trucks, H. B. Schlegel, G. E. Scuseria, 
 M. A. Robb, J. R. Cheeseman, G. Scalmani, V. Barone, 
 G. A. Petersson, H. Nakatsuji, X. Li, M. Caricato, A. V. Marenich, 
 J. Bloino, B. G. Janesko, R. Gomperts, B. Mennucci, H. P. Hratchian, 
 J. V. Ortiz, A. F. Izmaylov, J. L. Sonnenberg, D. Williams-Young, 
 F. Ding, F. Lipparini, F. Egidi, J. Goings, B. Peng, A. Petrone, 
 T. Henderson, D. Ranasinghe, V. G. Zakrzewski, J. Gao, N. Rega, 
 G. Zheng, W. Liang, M. Hada, M. Ehara, K. Toyota, R. Fukuda, 
 J. Hasegawa, M. Ishida, T. Nakajima, Y. Honda, O. Kitao, H. Nakai, 
 T. Vreven, K. Throssell, J. A. Montgomery, Jr., J. E. Peralta, 
 F. Ogliaro, M. J. Bearpark, J. J. Heyd, E. N. Brothers, K. N. Kudin, 
 V. N. Staroverov, T. A. Keith, R. Kobayashi, J. Normand, 
 K. Raghavachari, A. P. Rendell, J. C. Burant, S. S. Iyengar, 
 J. Tomasi, M. Cossi, J. M. Millam, M. Klene, C. Adamo, R. Cammi, 
 J. W. Ochterski, R. L. Martin, K. Morokuma, O. Farkas, 
 J. B. Foresman, and D. J. Fox, Gaussian, Inc., Wallingford CT, 2019.
 
 ******************************************
 Gaussian 16:  ES64L-G16RevC.02  7-Dec-2021
                19-Jan-2026 
 ******************************************
 %nprocshared=96
 Will use up to   96 processors via shared memory.
 %mem=345GB
 %chk=t1.chk
 ----------------------------------------------------------------------
 # opt td=(triplets,nstates=5) PBE1PBE/genecp scrf=(solvent=toluene) em
 =gd3bj
 ----------------------------------------------------------------------
 1/18=20,19=15,26=3,38=1/1,3;
 2/9=110,12=2,17=6,18=5,40=1/2;
 3/5=7,11=9,16=1,17=8,25=1,30=1,70=2201,71=1,72=13,74=-13,124=41/1,2,3,8;
 4//1;
 5/5=2,38=5,53=13/2;
 8/6=1,10=1,108=5/1;
 9/15=2,41=5,42=1,48=3,70=2/14;
 10/5=4/2;
 6/7=2,8=2,9=2,10=2/1;
 7/12=6,13=5/1,2,3,16;
 1/18=20,19=15,26=3/3(2);
 2/9=110/2;
 99//99;
 2/9=110/2;
 3/5=7,6=1,11=9,16=1,17=8,25=1,30=1,70=2205,71=1,72=13,74=-13,82=7,124=41/1,2,3,8;
 4/5=5,16=3,69=1/1;
 5/5=2,38=5,53=13/2;
 8/6=1,10=1,108=5/1;
 9/15=2,41=5,42=1,48=3,49=4,70=2/14;
 10/5=4/2;
 7/12=6,13=5/1,2,3,16;
 1/18=20,19=15,26=3/3(-8);
 2/9=110/2;
 6/7=2,8=2,9=2,10=2/1;
 99/9=10/99;
 ------
 s1 opt
 ------
 Symbolic Z-matrix:
 Charge =  0 Multiplicity = 1
 Pd                   -0.21526   0.6096   -0.48143 
 N                     0.00138  -2.35491  -1.73833 
 N                     1.70367  -1.06514  -1.86306 
 N                     1.18436   3.11876  -0.04757 
 N                    -0.63048   3.40873   1.0529 
 N                    -2.18013   0.09936   0.16958 
 N                     4.20397   0.45599   1.46433 
 N                     6.21241  -0.11473   0.34618 
 N                     4.5112   -1.74733   0.61039 
 C                    -4.7792   -1.99555  -3.12742 
 H                    -4.76569  -0.92213  -2.91748 
 H                    -5.79445  -2.35792  -2.94232 
 H                    -4.56353  -2.13327  -4.19204 
 C                    -3.76296  -2.72301  -2.26021 
 H                    -3.80731  -3.80219  -2.45495 
 H                    -4.0219   -2.58854  -1.20393 
 C                    -2.34566  -2.22012  -2.49242 
 H                    -2.31147  -1.13518  -2.3498 
 H                    -2.03812  -2.41473  -3.52714 
 C                    -1.34923  -2.86006  -1.54098 
 H                    -1.63364  -2.67416  -0.50533 
 H                    -1.31087  -3.94299  -1.68268 
 C                     1.02332  -3.08043  -2.32276 
 H                     0.89302  -4.10561  -2.62615 
 C                     2.10351  -2.26637  -2.39614 
 H                     3.10104  -2.44602  -2.75897 
 C                     0.40484  -1.10813  -1.43682 
 C                     2.38659   0.15862  -1.69955 
 C                     1.57919   1.09912  -1.08654 
 C                     2.10486   2.34386  -0.79113 
 C                     3.4002    2.69038  -1.14809 
 H                     3.82456   3.65749  -0.90449 
 C                     4.17775   1.72867  -1.79219 
 H                     5.2018    1.96908  -2.05175 
 C                     3.69371   0.44991  -2.06458 
 H                     4.33789  -0.28968  -2.52652 
 C                    -0.02255   2.5361    0.22903 
 C                     1.32012   4.32617   0.59654 
 H                     2.20718   4.93274   0.52496 
 C                     0.16947   4.51405   1.28721 
 H                    -0.14469   5.32611   1.9215 
 C                    -1.95426   3.21453   1.62298 
 H                    -1.88182   3.34581   2.70699 
 H                    -2.22205   2.17595   1.42961 
 C                    -2.99111   4.15456   1.03248 
 H                    -2.74454   5.19076   1.29551 
 H                    -2.94976   4.08457  -0.05986 
 C                    -4.39536   3.81619   1.51191 
 H                    -4.65574   2.80974   1.16369 
 H                    -4.41041   3.78043   2.60851 
 C                    -5.42937   4.81508   1.01766 
 H                    -6.43566   4.54441   1.34835 
 H                    -5.4385    4.85679  -0.07541 
 H                    -5.21554   5.82252   1.389 
 C                    -3.3996    1.61828  -1.38972 
 H                    -2.49793   2.08413  -1.77416 
 C                    -4.65578   1.96118  -1.86385 
 H                    -4.72581   2.72246  -2.63315 
 C                    -5.83446   1.34128  -1.40185 
 C                    -5.73157   0.35465  -0.4163 
 H                    -6.6168   -0.15141  -0.05065 
 C                    -4.48439  -0.00008   0.07791 
 C                    -3.31544   0.63154  -0.40902 
 C                    -2.60177  -0.86618   1.04522 
 C                    -4.01624  -1.01291   1.00398 
 C                    -4.63572  -2.08017   1.61917 
 H                    -5.71133  -2.20002   1.55353 
 C                    -3.84328  -3.06178   2.27484 
 C                    -2.46829  -2.90264   2.32267 
 H                    -1.86171  -3.62557   2.85319 
 C                    -1.79339  -1.78312   1.77277 
 C                    -7.17256   1.72554  -2.02811 
 C                    -8.34383   0.97225  -1.39854 
 H                    -8.25302  -0.10897  -1.53851 
 H                    -9.27689   1.28946  -1.87234 
 H                    -8.42811   1.17741  -0.32711 
 C                    -7.41976   3.22911  -1.85072 
 H                    -7.47202   3.4916   -0.79097 
 H                    -8.36713   3.51076  -2.32114 
 H                    -6.62881   3.8288   -2.30817 
 C                    -7.13362   1.38898  -3.52644 
 H                    -6.34119   1.93662  -4.04281 
 H                    -8.08689   1.65265  -3.99568 
 H                    -6.95904   0.32028  -3.67988 
 C                    -4.54549  -4.25988   2.90225 
 C                    -3.57087  -5.22769   3.57097 
 H                    -2.84957  -5.63395   2.85592 
 H                    -4.12735  -6.06781   3.99574 
 H                    -3.01843  -4.74885   4.38437 
 C                    -5.30231  -5.02118   1.8028 
 H                    -6.05607  -4.39564   1.31814 
 H                    -5.8117   -5.88996   2.23158 
 H                    -4.61125  -5.37467   1.03189 
 C                    -5.54067  -3.7651    3.96164 
 H                    -5.02128  -3.22061   4.75528 
 H                    -6.06137  -4.61564   4.41284 
 H                    -6.29404  -3.09926   3.53326 
 C                    -0.37123  -1.60865   1.87241 
 C                     0.53564  -2.67105   1.62667 
 H                     0.14526  -3.67354   1.47491 
 C                     1.87486  -2.43141   1.45445 
 H                     2.54652  -3.23336   1.17267 
 C                     2.41149  -1.12187   1.59971 
 C                     1.53222  -0.09628   2.02125 
 H                     1.94059   0.88946   2.20582 
 C                     0.18027  -0.32109   2.10443 
 H                    -0.4826    0.48207   2.41 
 C                     3.75737  -0.80607   1.23784 
 C                     5.69494  -1.34682   0.18719 
 C                     5.40287   0.73967   1.00325 
 C                     6.51338  -2.32633  -0.56507 
 C                     6.03052  -3.61481  -0.80923 
 H                     5.05426  -3.87907  -0.42018 
 C                     6.78904  -4.52406  -1.53141 
 H                     6.40593  -5.52309  -1.71347 
 C                     8.04115  -4.15938  -2.01997 
 H                     8.63453  -4.87153  -2.58425 
 C                     8.52821  -2.87929  -1.77956 
 H                     9.50427  -2.59073  -2.15615 
 C                     7.76993  -1.9675   -1.05701 
 H                     8.13196  -0.96584  -0.85959 
 C                     5.88337   2.12784   1.18409 
 C                     7.11248   2.52812   0.65843 
 H                     7.71877   1.78953   0.14791 
 C                     7.53531   3.84563   0.78422 
 H                     8.49181   4.1471    0.36944 
 C                     6.73808   4.77699   1.44011 
 H                     7.0699    5.8055    1.53898 
 C                     5.51368   4.38124   1.97479 
 H                     4.89084   5.1018    2.49586 
 C                     5.08937   3.06744   1.84725 
 H                     4.1368    2.74129   2. 
 

 GradGradGradGradGradGradGradGradGradGradGradGradGradGradGradGradGradGrad
 Berny optimization.
 Initialization pass.
                           ----------------------------
                           !    Initial Parameters    !
                           ! (Angstroms and Degrees)  !
 --------------------------                            --------------------------
 ! Name  Definition              Value          Derivative Info.                !
 --------------------------------------------------------------------------------
 ! R1    R(1,6)                  2.1319         estimate D2E/DX2                !
 ! R2    R(1,27)                 2.061          estimate D2E/DX2                !
 ! R3    R(1,29)                 1.956          estimate D2E/DX2                !
 ! R4    R(1,37)                 2.0624         estimate D2E/DX2                !
 ! R5    R(2,20)                 1.4554         estimate D2E/DX2                !
 ! R6    R(2,23)                 1.3829         estimate D2E/DX2                !
 ! R7    R(2,27)                 1.3447         estimate D2E/DX2                !
 ! R8    R(3,25)                 1.3737         estimate D2E/DX2                !
 ! R9    R(3,27)                 1.3677         estimate D2E/DX2                !
 ! R10   R(3,28)                 1.4109         estimate D2E/DX2                !
 ! R11   R(4,30)                 1.4145         estimate D2E/DX2                !
 ! R12   R(4,37)                 1.3684         estimate D2E/DX2                !
 ! R13   R(4,38)                 1.3752         estimate D2E/DX2                !
 ! R14   R(5,37)                 1.3453         estimate D2E/DX2                !
 ! R15   R(5,40)                 1.3844         estimate D2E/DX2                !
 ! R16   R(5,42)                 1.4543         estimate D2E/DX2                !
 ! R17   R(6,63)                 1.3809         estimate D2E/DX2                !
 ! R18   R(6,64)                 1.37           estimate D2E/DX2                !
 ! R19   R(7,108)                1.3578         estimate D2E/DX2                !
 ! R20   R(7,110)                1.3155         estimate D2E/DX2                !
 ! R21   R(8,109)                1.3458         estimate D2E/DX2                !
 ! R22   R(8,110)                1.348          estimate D2E/DX2                !
 ! R23   R(9,108)                1.3594         estimate D2E/DX2                !
 ! R24   R(9,109)                1.3194         estimate D2E/DX2                !
 ! R25   R(10,11)                1.0938         estimate D2E/DX2                !
 ! R26   R(10,12)                1.0938         estimate D2E/DX2                !
 ! R27   R(10,13)                1.0949         estimate D2E/DX2                !
 ! R28   R(10,14)                1.5212         estimate D2E/DX2                !
 ! R29   R(14,15)                1.0975         estimate D2E/DX2                !
 ! R30   R(14,16)                1.0958         estimate D2E/DX2                !
 ! R31   R(14,17)                1.5217         estimate D2E/DX2                !
 ! R32   R(17,18)                1.0948         estimate D2E/DX2                !
 ! R33   R(17,19)                1.0969         estimate D2E/DX2                !
 ! R34   R(17,20)                1.5191         estimate D2E/DX2                !
 ! R35   R(20,21)                1.09           estimate D2E/DX2                !
 ! R36   R(20,22)                1.0928         estimate D2E/DX2                !
 ! R37   R(23,24)                1.077          estimate D2E/DX2                !
 ! R38   R(23,25)                1.3546         estimate D2E/DX2                !
 ! R39   R(25,26)                1.0766         estimate D2E/DX2                !
 ! R40   R(28,29)                1.3828         estimate D2E/DX2                !
 ! R41   R(28,35)                1.388          estimate D2E/DX2                !
 ! R42   R(29,30)                1.3831         estimate D2E/DX2                !
 ! R43   R(30,31)                1.3876         estimate D2E/DX2                !
 ! R44   R(31,32)                1.0839         estimate D2E/DX2                !
 ! R45   R(31,33)                1.3944         estimate D2E/DX2                !
 ! R46   R(33,34)                1.0834         estimate D2E/DX2                !
 ! R47   R(33,35)                1.3942         estimate D2E/DX2                !
 ! R48   R(35,36)                1.0841         estimate D2E/DX2                !
 ! R49   R(38,39)                1.077          estimate D2E/DX2                !
 ! R50   R(38,40)                1.3551         estimate D2E/DX2                !
 ! R51   R(40,41)                1.0772         estimate D2E/DX2                !
 ! R52   R(42,43)                1.0943         estimate D2E/DX2                !
 ! R53   R(42,44)                1.0898         estimate D2E/DX2                !
 ! R54   R(42,45)                1.519          estimate D2E/DX2                !
 ! R55   R(45,46)                1.0971         estimate D2E/DX2                !
 ! R56   R(45,47)                1.0954         estimate D2E/DX2                !
 ! R57   R(45,48)                1.5219         estimate D2E/DX2                !
 ! R58   R(48,49)                1.0964         estimate D2E/DX2                !
 ! R59   R(48,50)                1.0973         estimate D2E/DX2                !
 ! R60   R(48,51)                1.5203         estimate D2E/DX2                !
 ! R61   R(51,52)                1.0933         estimate D2E/DX2                !
 ! R62   R(51,53)                1.0939         estimate D2E/DX2                !
 ! R63   R(51,54)                1.0948         estimate D2E/DX2                !
 ! R64   R(55,56)                1.0853         estimate D2E/DX2                !
 ! R65   R(55,57)                1.3858         estimate D2E/DX2                !
 ! R66   R(55,63)                1.3937         estimate D2E/DX2                !
 ! R67   R(57,58)                1.0846         estimate D2E/DX2                !
 ! R68   R(57,59)                1.4096         estimate D2E/DX2                !
 ! R69   R(59,60)                1.3983         estimate D2E/DX2                !
 ! R70   R(59,72)                1.5266         estimate D2E/DX2                !
 ! R71   R(60,61)                1.0832         estimate D2E/DX2                !
 ! R72   R(60,62)                1.3876         estimate D2E/DX2                !
 ! R73   R(62,63)                1.4151         estimate D2E/DX2                !
 ! R74   R(62,65)                1.45           estimate D2E/DX2                !
 ! R75   R(64,65)                1.4227         estimate D2E/DX2                !
 ! R76   R(64,71)                1.4225         estimate D2E/DX2                !
 ! R77   R(65,66)                1.3789         estimate D2E/DX2                !
 ! R78   R(66,67)                1.0843         estimate D2E/DX2                !
 ! R79   R(66,68)                1.4218         estimate D2E/DX2                !
 ! R80   R(68,69)                1.385          estimate D2E/DX2                !
 ! R81   R(68,85)                1.5239         estimate D2E/DX2                !
 ! R82   R(69,70)                1.0826         estimate D2E/DX2                !
 ! R83   R(69,71)                1.4182         estimate D2E/DX2                !
 ! R84   R(71,98)                1.4363         estimate D2E/DX2                !
 ! R85   R(72,73)                1.5283         estimate D2E/DX2                !
 ! R86   R(72,77)                1.534          estimate D2E/DX2                !
 ! R87   R(72,81)                1.5362         estimate D2E/DX2                !
 ! R88   R(73,74)                1.094          estimate D2E/DX2                !
 ! R89   R(73,75)                1.0935         estimate D2E/DX2                !
 ! R90   R(73,76)                1.0941         estimate D2E/DX2                !
 ! R91   R(77,78)                1.093          estimate D2E/DX2                !
 ! R92   R(77,79)                1.0946         estimate D2E/DX2                !
 ! R93   R(77,80)                1.0929         estimate D2E/DX2                !
 ! R94   R(81,82)                1.0929         estimate D2E/DX2                !
 ! R95   R(81,83)                1.0947         estimate D2E/DX2                !
 ! R96   R(81,84)                1.0937         estimate D2E/DX2                !
 ! R97   R(85,86)                1.5276         estimate D2E/DX2                !
 ! R98   R(85,90)                1.5366         estimate D2E/DX2                !
 ! R99   R(85,94)                1.5354         estimate D2E/DX2                !
 ! R100  R(86,87)                1.0939         estimate D2E/DX2                !
 ! R101  R(86,88)                1.0936         estimate D2E/DX2                !
 ! R102  R(86,89)                1.0937         estimate D2E/DX2                !
 ! R103  R(90,91)                1.0929         estimate D2E/DX2                !
 ! R104  R(90,92)                1.0946         estimate D2E/DX2                !
 ! R105  R(90,93)                1.094          estimate D2E/DX2                !
 ! R106  R(94,95)                1.0937         estimate D2E/DX2                !
 ! R107  R(94,96)                1.0946         estimate D2E/DX2                !
 ! R108  R(94,97)                1.0929         estimate D2E/DX2                !
 ! R109  R(98,99)                1.4183         estimate D2E/DX2                !
 ! R110  R(98,106)               1.4198         estimate D2E/DX2                !
 ! R111  R(99,100)               1.0865         estimate D2E/DX2                !
 ! R112  R(99,101)               1.3714         estimate D2E/DX2                !
 ! R113  R(101,102)              1.0833         estimate D2E/DX2                !
 ! R114  R(101,103)              1.4227         estimate D2E/DX2                !
 ! R115  R(103,104)              1.4151         estimate D2E/DX2                !
 ! R116  R(103,108)              1.429          estimate D2E/DX2                !
 ! R117  R(104,105)              1.0828         estimate D2E/DX2                !
 ! R118  R(104,106)              1.373          estimate D2E/DX2                !
 ! R119  R(106,107)              1.0853         estimate D2E/DX2                !
 ! R120  R(109,111)              1.4816         estimate D2E/DX2                !
 ! R121  R(110,122)              1.4801         estimate D2E/DX2                !
 ! R122  R(111,112)              1.3975         estimate D2E/DX2                !
 ! R123  R(111,120)              1.3963         estimate D2E/DX2                !
 ! R124  R(112,113)              1.0836         estimate D2E/DX2                !
 ! R125  R(112,114)              1.387          estimate D2E/DX2                !
 ! R126  R(114,115)              1.0853         estimate D2E/DX2                !
 ! R127  R(114,116)              1.3926         estimate D2E/DX2                !
 ! R128  R(116,117)              1.0852         estimate D2E/DX2                !
 ! R129  R(116,118)              1.3906         estimate D2E/DX2                !
 ! R130  R(118,119)              1.0853         estimate D2E/DX2                !
 ! R131  R(118,120)              1.3887         estimate D2E/DX2                !
 ! R132  R(120,121)              1.0832         estimate D2E/DX2                !
 ! R133  R(122,123)              1.3954         estimate D2E/DX2                !
 ! R134  R(122,131)              1.3975         estimate D2E/DX2                !
 ! R135  R(123,124)              1.0834         estimate D2E/DX2                !
 ! R136  R(123,125)              1.3894         estimate D2E/DX2                !
 ! R137  R(125,126)              1.0853         estimate D2E/DX2                !
 ! R138  R(125,127)              1.3904         estimate D2E/DX2                !
 ! R139  R(127,128)              1.0852         estimate D2E/DX2                !
 ! R140  R(127,129)              1.3934         estimate D2E/DX2                !
 ! R141  R(129,130)              1.0857         estimate D2E/DX2                !
 ! R142  R(129,131)              1.3865         estimate D2E/DX2                !
 ! R143  R(131,132)              1.0184         estimate D2E/DX2                !
 ! A1    A(6,1,27)             102.6726         estimate D2E/DX2                !
 ! A2    A(6,1,37)             101.8004         estimate D2E/DX2                !
 ! A3    A(27,1,29)             77.8279         estimate D2E/DX2                !
 ! A4    A(27,1,37)            155.5193         estimate D2E/DX2                !
 ! A5    A(29,1,37)             77.7056         estimate D2E/DX2                !
 ! A6    A(20,2,23)            124.1243         estimate D2E/DX2                !
 ! A7    A(20,2,27)            124.7395         estimate D2E/DX2                !
 ! A8    A(23,2,27)            111.0686         estimate D2E/DX2                !
 ! A9    A(25,3,27)            111.7085         estimate D2E/DX2                !
 ! A10   A(25,3,28)            131.4942         estimate D2E/DX2                !
 ! A11   A(27,3,28)            116.7957         estimate D2E/DX2                !
 ! A12   A(30,4,37)            116.5485         estimate D2E/DX2                !
 ! A13   A(30,4,38)            131.5274         estimate D2E/DX2                !
 ! A14   A(37,4,38)            111.4836         estimate D2E/DX2                !
 ! A15   A(37,5,40)            111.1262         estimate D2E/DX2                !
 ! A16   A(37,5,42)            124.3863         estimate D2E/DX2                !
 ! A17   A(40,5,42)            124.4875         estimate D2E/DX2                !
 ! A18   A(1,6,63)             122.5173         estimate D2E/DX2                !
 ! A19   A(1,6,64)             130.3562         estimate D2E/DX2                !
 ! A20   A(63,6,64)            106.6419         estimate D2E/DX2                !
 ! A21   A(108,7,110)          116.2164         estimate D2E/DX2                !
 ! A22   A(109,8,110)          114.0136         estimate D2E/DX2                !
 ! A23   A(108,9,109)          115.8104         estimate D2E/DX2                !
 ! A24   A(11,10,12)           107.7044         estimate D2E/DX2                !
 ! A25   A(11,10,13)           107.9156         estimate D2E/DX2                !
 ! A26   A(11,10,14)           110.5867         estimate D2E/DX2                !
 ! A27   A(12,10,13)           107.8006         estimate D2E/DX2                !
 ! A28   A(12,10,14)           111.4191         estimate D2E/DX2                !
 ! A29   A(13,10,14)           111.2579         estimate D2E/DX2                !
 ! A30   A(10,14,15)           110.004          estimate D2E/DX2                !
 ! A31   A(10,14,16)           109.4494         estimate D2E/DX2                !
 ! A32   A(10,14,17)           112.16           estimate D2E/DX2                !
 ! A33   A(15,14,16)           106.3876         estimate D2E/DX2                !
 ! A34   A(15,14,17)           109.6043         estimate D2E/DX2                !
 ! A35   A(16,14,17)           109.0638         estimate D2E/DX2                !
 ! A36   A(14,17,18)           109.6765         estimate D2E/DX2                !
 ! A37   A(14,17,19)           110.2713         estimate D2E/DX2                !
 ! A38   A(14,17,20)           112.095          estimate D2E/DX2                !
 ! A39   A(18,17,19)           106.8557         estimate D2E/DX2                !
 ! A40   A(18,17,20)           108.3842         estimate D2E/DX2                !
 ! A41   A(19,17,20)           109.4015         estimate D2E/DX2                !
 ! A42   A(2,20,17)            112.1824         estimate D2E/DX2                !
 ! A43   A(2,20,21)            108.1672         estimate D2E/DX2                !
 ! A44   A(2,20,22)            107.0843         estimate D2E/DX2                !
 ! A45   A(17,20,21)           110.6162         estimate D2E/DX2                !
 ! A46   A(17,20,22)           111.0547         estimate D2E/DX2                !
 ! A47   A(21,20,22)           107.5401         estimate D2E/DX2                !
 ! A48   A(2,23,24)            121.9402         estimate D2E/DX2                !
 ! A49   A(2,23,25)            107.2715         estimate D2E/DX2                !
 ! A50   A(24,23,25)           130.7869         estimate D2E/DX2                !
 ! A51   A(3,25,23)            105.8067         estimate D2E/DX2                !
 ! A52   A(3,25,26)            123.1218         estimate D2E/DX2                !
 ! A53   A(23,25,26)           131.0609         estimate D2E/DX2                !
 ! A54   A(1,27,2)             141.8519         estimate D2E/DX2                !
 ! A55   A(1,27,3)             113.8285         estimate D2E/DX2                !
 ! A56   A(2,27,3)             104.1349         estimate D2E/DX2                !
 ! A57   A(3,28,29)            111.0183         estimate D2E/DX2                !
 ! A58   A(3,28,35)            127.3983         estimate D2E/DX2                !
 ! A59   A(29,28,35)           121.5798         estimate D2E/DX2                !
 ! A60   A(1,29,28)            120.1714         estimate D2E/DX2                !
 ! A61   A(1,29,30)            120.5198         estimate D2E/DX2                !
 ! A62   A(28,29,30)           119.0031         estimate D2E/DX2                !
 ! A63   A(4,30,29)            110.976          estimate D2E/DX2                !
 ! A64   A(4,30,31)            127.2966         estimate D2E/DX2                !
 ! A65   A(29,30,31)           121.6412         estimate D2E/DX2                !
 ! A66   A(30,31,32)           122.0402         estimate D2E/DX2                !
 ! A67   A(30,31,33)           117.8495         estimate D2E/DX2                !
 ! A68   A(32,31,33)           120.0595         estimate D2E/DX2                !
 ! A69   A(31,33,34)           118.9915         estimate D2E/DX2                !
 ! A70   A(31,33,35)           121.9547         estimate D2E/DX2                !
 ! A71   A(34,33,35)           119.0044         estimate D2E/DX2                !
 ! A72   A(28,35,33)           117.9081         estimate D2E/DX2                !
 ! A73   A(28,35,36)           121.9001         estimate D2E/DX2                !
 ! A74   A(33,35,36)           120.1767         estimate D2E/DX2                !
 ! A75   A(1,37,4)             114.2375         estimate D2E/DX2                !
 ! A76   A(1,37,5)             140.7746         estimate D2E/DX2                !
 ! A77   A(4,37,5)             104.25           estimate D2E/DX2                !
 ! A78   A(4,38,39)            123.0026         estimate D2E/DX2                !
 ! A79   A(4,38,40)            106.059          estimate D2E/DX2                !
 ! A80   A(39,38,40)           130.9313         estimate D2E/DX2                !
 ! A81   A(5,40,38)            107.0786         estimate D2E/DX2                !
 ! A82   A(5,40,41)            122.2093         estimate D2E/DX2                !
 ! A83   A(38,40,41)           130.7113         estimate D2E/DX2                !
 ! A84   A(5,42,43)            108.1808         estimate D2E/DX2                !
 ! A85   A(5,42,44)            106.3411         estimate D2E/DX2                !
 ! A86   A(5,42,45)            112.7234         estimate D2E/DX2                !
 ! A87   A(43,42,44)           107.8395         estimate D2E/DX2                !
 ! A88   A(43,42,45)           110.8559         estimate D2E/DX2                !
 ! A89   A(44,42,45)           110.6735         estimate D2E/DX2                !
 ! A90   A(42,45,46)           109.7474         estimate D2E/DX2                !
 ! A91   A(42,45,47)           108.8058         estimate D2E/DX2                !
 ! A92   A(42,45,48)           111.7001         estimate D2E/DX2                !
 ! A93   A(46,45,47)           106.9151         estimate D2E/DX2                !
 ! A94   A(46,45,48)           109.9877         estimate D2E/DX2                !
 ! A95   A(47,45,48)           109.5588         estimate D2E/DX2                !
 ! A96   A(45,48,49)           108.8552         estimate D2E/DX2                !
 ! A97   A(45,48,50)           109.5558         estimate D2E/DX2                !
 ! A98   A(45,48,51)           112.2755         estimate D2E/DX2                !
 ! A99   A(49,48,50)           106.5132         estimate D2E/DX2                !
 ! A100  A(49,48,51)           109.7773         estimate D2E/DX2                !
 ! A101  A(50,48,51)           109.6939         estimate D2E/DX2                !
 ! A102  A(48,51,52)           111.4097         estimate D2E/DX2                !
 ! A103  A(48,51,53)           110.8297         estimate D2E/DX2                !
 ! A104  A(48,51,54)           111.1925         estimate D2E/DX2                !
 ! A105  A(52,51,53)           107.6984         estimate D2E/DX2                !
 ! A106  A(52,51,54)           107.7583         estimate D2E/DX2                !
 ! A107  A(53,51,54)           107.7865         estimate D2E/DX2                !
 ! A108  A(56,55,57)           121.717          estimate D2E/DX2                !
 ! A109  A(56,55,63)           120.197          estimate D2E/DX2                !
 ! A110  A(57,55,63)           118.0777         estimate D2E/DX2                !
 ! A111  A(55,57,58)           118.3529         estimate D2E/DX2                !
 ! A112  A(55,57,59)           122.4813         estimate D2E/DX2                !
 ! A113  A(58,57,59)           119.155          estimate D2E/DX2                !
 ! A114  A(57,59,60)           118.67           estimate D2E/DX2                !
 ! A115  A(57,59,72)           119.1957         estimate D2E/DX2                !
 ! A116  A(60,59,72)           122.0892         estimate D2E/DX2                !
 ! A117  A(59,60,61)           120.4909         estimate D2E/DX2                !
 ! A118  A(59,60,62)           119.8358         estimate D2E/DX2                !
 ! A119  A(61,60,62)           119.6592         estimate D2E/DX2                !
 ! A120  A(60,62,63)           120.3843         estimate D2E/DX2                !
 ! A121  A(60,62,65)           134.1222         estimate D2E/DX2                !
 ! A122  A(63,62,65)           105.3565         estimate D2E/DX2                !
 ! A123  A(6,63,55)            128.1204         estimate D2E/DX2                !
 ! A124  A(6,63,62)            111.2816         estimate D2E/DX2                !
 ! A125  A(55,63,62)           120.5467         estimate D2E/DX2                !
 ! A126  A(6,64,65)            111.1103         estimate D2E/DX2                !
 ! A127  A(6,64,71)            127.3225         estimate D2E/DX2                !
 ! A128  A(65,64,71)           120.8871         estimate D2E/DX2                !
 ! A129  A(62,65,64)           105.5141         estimate D2E/DX2                !
 ! A130  A(62,65,66)           132.8853         estimate D2E/DX2                !
 ! A131  A(64,65,66)           120.9023         estimate D2E/DX2                !
 ! A132  A(65,66,67)           120.2802         estimate D2E/DX2                !
 ! A133  A(65,66,68)           119.3235         estimate D2E/DX2                !
 ! A134  A(67,66,68)           120.2998         estimate D2E/DX2                !
 ! A135  A(66,68,69)           119.3363         estimate D2E/DX2                !
 ! A136  A(66,68,85)           118.4149         estimate D2E/DX2                !
 ! A137  A(69,68,85)           122.2488         estimate D2E/DX2                !
 ! A138  A(68,69,70)           119.7654         estimate D2E/DX2                !
 ! A139  A(68,69,71)           123.3513         estimate D2E/DX2                !
 ! A140  A(70,69,71)           116.777          estimate D2E/DX2                !
 ! A141  A(64,71,69)           115.8949         estimate D2E/DX2                !
 ! A142  A(64,71,98)           121.323          estimate D2E/DX2                !
 ! A143  A(69,71,98)           122.6979         estimate D2E/DX2                !
 ! A144  A(59,72,73)           112.2541         estimate D2E/DX2                !
 ! A145  A(59,72,77)           109.909          estimate D2E/DX2                !
 ! A146  A(59,72,81)           108.8308         estimate D2E/DX2                !
 ! A147  A(73,72,77)           108.178          estimate D2E/DX2                !
 ! A148  A(73,72,81)           108.2545         estimate D2E/DX2                !
 ! A149  A(77,72,81)           109.3661         estimate D2E/DX2                !
 ! A150  A(72,73,74)           111.7654         estimate D2E/DX2                !
 ! A151  A(72,73,75)           109.4191         estimate D2E/DX2                !
 ! A152  A(72,73,76)           111.7156         estimate D2E/DX2                !
 ! A153  A(74,73,75)           107.5831         estimate D2E/DX2                !
 ! A154  A(74,73,76)           108.4814         estimate D2E/DX2                !
 ! A155  A(75,73,76)           107.7089         estimate D2E/DX2                !
 ! A156  A(72,77,78)           110.8054         estimate D2E/DX2                !
 ! A157  A(72,77,79)           109.9974         estimate D2E/DX2                !
 ! A158  A(72,77,80)           111.8872         estimate D2E/DX2                !
 ! A159  A(78,77,79)           108.2712         estimate D2E/DX2                !
 ! A160  A(78,77,80)           107.9773         estimate D2E/DX2                !
 ! A161  A(79,77,80)           107.7757         estimate D2E/DX2                !
 ! A162  A(72,81,82)           111.6808         estimate D2E/DX2                !
 ! A163  A(72,81,83)           110.0748         estimate D2E/DX2                !
 ! A164  A(72,81,84)           110.7921         estimate D2E/DX2                !
 ! A165  A(82,81,83)           107.9479         estimate D2E/DX2                !
 ! A166  A(82,81,84)           107.915          estimate D2E/DX2                !
 ! A167  A(83,81,84)           108.3128         estimate D2E/DX2                !
 ! A168  A(68,85,86)           112.602          estimate D2E/DX2                !
 ! A169  A(68,85,90)           108.7774         estimate D2E/DX2                !
 ! A170  A(68,85,94)           109.2318         estimate D2E/DX2                !
 ! A171  A(86,85,90)           108.2737         estimate D2E/DX2                !
 ! A172  A(86,85,94)           108.3994         estimate D2E/DX2                !
 ! A173  A(90,85,94)           109.5181         estimate D2E/DX2                !
 ! A174  A(85,86,87)           111.7052         estimate D2E/DX2                !
 ! A175  A(85,86,88)           109.3949         estimate D2E/DX2                !
 ! A176  A(85,86,89)           111.7437         estimate D2E/DX2                !
 ! A177  A(87,86,88)           107.7053         estimate D2E/DX2                !
 ! A178  A(87,86,89)           108.4022         estimate D2E/DX2                !
 ! A179  A(88,86,89)           107.7287         estimate D2E/DX2                !
 ! A180  A(85,90,91)           111.927          estimate D2E/DX2                !
 ! A181  A(85,90,92)           110.0081         estimate D2E/DX2                !
 ! A182  A(85,90,93)           110.6816         estimate D2E/DX2                !
 ! A183  A(91,90,92)           107.882          estimate D2E/DX2                !
 ! A184  A(91,90,93)           107.9464         estimate D2E/DX2                !
 ! A185  A(92,90,93)           108.2732         estimate D2E/DX2                !
 ! A186  A(85,94,95)           110.6901         estimate D2E/DX2                !
 ! A187  A(85,94,96)           110.0198         estimate D2E/DX2                !
 ! A188  A(85,94,97)           111.8809         estimate D2E/DX2                !
 ! A189  A(95,94,96)           108.2785         estimate D2E/DX2                !
 ! A190  A(95,94,97)           107.9681         estimate D2E/DX2                !
 ! A191  A(96,94,97)           107.8822         estimate D2E/DX2                !
 ! A192  A(71,98,99)           122.0132         estimate D2E/DX2                !
 ! A193  A(71,98,106)          120.4057         estimate D2E/DX2                !
 ! A194  A(99,98,106)          117.3393         estimate D2E/DX2                !
 ! A195  A(98,99,100)          119.0537         estimate D2E/DX2                !
 ! A196  A(98,99,101)          121.0171         estimate D2E/DX2                !
 ! A197  A(100,99,101)         119.6434         estimate D2E/DX2                !
 ! A198  A(99,101,102)         120.5814         estimate D2E/DX2                !
 ! A199  A(99,101,103)         121.0909         estimate D2E/DX2                !
 ! A200  A(102,101,103)        118.3            estimate D2E/DX2                !
 ! A201  A(101,103,104)        117.5899         estimate D2E/DX2                !
 ! A202  A(101,103,108)        122.1962         estimate D2E/DX2                !
 ! A203  A(104,103,108)        120.0307         estimate D2E/DX2                !
 ! A204  A(103,104,105)        118.4365         estimate D2E/DX2                !
 ! A205  A(103,104,106)        120.7423         estimate D2E/DX2                !
 ! A206  A(105,104,106)        120.6684         estimate D2E/DX2                !
 ! A207  A(98,106,104)         121.4031         estimate D2E/DX2                !
 ! A208  A(98,106,107)         118.678          estimate D2E/DX2                !
 ! A209  A(104,106,107)        119.8209         estimate D2E/DX2                !
 ! A210  A(7,108,9)            122.5612         estimate D2E/DX2                !
 ! A211  A(7,108,103)          118.2265         estimate D2E/DX2                !
 ! A212  A(9,108,103)          119.0876         estimate D2E/DX2                !
 ! A213  A(8,109,9)            125.8038         estimate D2E/DX2                !
 ! A214  A(8,109,111)          116.926          estimate D2E/DX2                !
 ! A215  A(9,109,111)          117.2443         estimate D2E/DX2                !
 ! A216  A(7,110,8)            125.5562         estimate D2E/DX2                !
 ! A217  A(7,110,122)          117.0854         estimate D2E/DX2                !
 ! A218  A(8,110,122)          117.3269         estimate D2E/DX2                !
 ! A219  A(109,111,112)        120.4899         estimate D2E/DX2                !
 ! A220  A(109,111,120)        120.4041         estimate D2E/DX2                !
 ! A221  A(112,111,120)        119.0992         estimate D2E/DX2                !
 ! A222  A(111,112,113)        118.255          estimate D2E/DX2                !
 ! A223  A(111,112,114)        120.4275         estimate D2E/DX2                !
 ! A224  A(113,112,114)        121.3175         estimate D2E/DX2                !
 ! A225  A(112,114,115)        119.8496         estimate D2E/DX2                !
 ! A226  A(112,114,116)        120.1796         estimate D2E/DX2                !
 ! A227  A(115,114,116)        119.9706         estimate D2E/DX2                !
 ! A228  A(114,116,117)        120.1446         estimate D2E/DX2                !
 ! A229  A(114,116,118)        119.6909         estimate D2E/DX2                !
 ! A230  A(117,116,118)        120.1644         estimate D2E/DX2                !
 ! A231  A(116,118,119)        119.9868         estimate D2E/DX2                !
 ! A232  A(116,118,120)        120.2071         estimate D2E/DX2                !
 ! A233  A(119,118,120)        119.806          estimate D2E/DX2                !
 ! A234  A(111,120,118)        120.3957         estimate D2E/DX2                !
 ! A235  A(111,120,121)        118.3066         estimate D2E/DX2                !
 ! A236  A(118,120,121)        121.2977         estimate D2E/DX2                !
 ! A237  A(110,122,123)        120.5943         estimate D2E/DX2                !
 ! A238  A(110,122,131)        120.273          estimate D2E/DX2                !
 ! A239  A(123,122,131)        119.0995         estimate D2E/DX2                !
 ! A240  A(122,123,124)        118.3511         estimate D2E/DX2                !
 ! A241  A(122,123,125)        120.3943         estimate D2E/DX2                !
 ! A242  A(124,123,125)        121.2532         estimate D2E/DX2                !
 ! A243  A(123,125,126)        119.8033         estimate D2E/DX2                !
 ! A244  A(123,125,127)        120.2255         estimate D2E/DX2                !
 ! A245  A(126,125,127)        119.9712         estimate D2E/DX2                !
 ! A246  A(125,127,128)        120.1657         estimate D2E/DX2                !
 ! A247  A(125,127,129)        119.6428         estimate D2E/DX2                !
 ! A248  A(128,127,129)        120.1909         estimate D2E/DX2                !
 ! A249  A(127,129,130)        119.9846         estimate D2E/DX2                !
 ! A250  A(127,129,131)        120.1809         estimate D2E/DX2                !
 ! A251  A(130,129,131)        119.8342         estimate D2E/DX2                !
 ! A252  A(122,131,129)        120.4549         estimate D2E/DX2                !
 ! A253  A(122,131,132)        112.786          estimate D2E/DX2                !
 ! A254  A(129,131,132)        125.1646         estimate D2E/DX2                !
 ! A255  L(6,1,29,27,-1)       180.5004         estimate D2E/DX2                !
 ! A256  L(6,1,29,27,-2)       179.485          estimate D2E/DX2                !
 ! D1    D(27,1,6,63)         -108.159          estimate D2E/DX2                !
 ! D2    D(27,1,6,64)           62.7375         estimate D2E/DX2                !
 ! D3    D(37,1,6,63)           72.4593         estimate D2E/DX2                !
 ! D4    D(37,1,6,64)         -116.6442         estimate D2E/DX2                !
 ! D5    D(6,1,27,2)            -1.2282         estimate D2E/DX2                !
 ! D6    D(6,1,27,3)          -175.1997         estimate D2E/DX2                !
 ! D7    D(29,1,27,2)          179.2869         estimate D2E/DX2                !
 ! D8    D(29,1,27,3)            5.3153         estimate D2E/DX2                !
 ! D9    D(37,1,27,2)          177.3113         estimate D2E/DX2                !
 ! D10   D(37,1,27,3)            3.3397         estimate D2E/DX2                !
 ! D11   D(27,1,29,28)          -4.8795         estimate D2E/DX2                !
 ! D12   D(27,1,29,30)        -178.4678         estimate D2E/DX2                !
 ! D13   D(37,1,29,28)         174.2828         estimate D2E/DX2                !
 ! D14   D(37,1,29,30)           0.6945         estimate D2E/DX2                !
 ! D15   D(6,1,37,4)           179.5212         estimate D2E/DX2                !
 ! D16   D(6,1,37,5)            11.4549         estimate D2E/DX2                !
 ! D17   D(27,1,37,4)            0.9769         estimate D2E/DX2                !
 ! D18   D(27,1,37,5)         -167.0894         estimate D2E/DX2                !
 ! D19   D(29,1,37,4)           -0.9996         estimate D2E/DX2                !
 ! D20   D(29,1,37,5)         -169.0659         estimate D2E/DX2                !
 ! D21   D(23,2,20,17)        -107.4018         estimate D2E/DX2                !
 ! D22   D(23,2,20,21)         130.3223         estimate D2E/DX2                !
 ! D23   D(23,2,20,22)          14.6845         estimate D2E/DX2                !
 ! D24   D(27,2,20,17)          69.3378         estimate D2E/DX2                !
 ! D25   D(27,2,20,21)         -52.9381         estimate D2E/DX2                !
 ! D26   D(27,2,20,22)        -168.5759         estimate D2E/DX2                !
 ! D27   D(20,2,23,24)          -3.4415         estimate D2E/DX2                !
 ! D28   D(20,2,23,25)         176.9513         estimate D2E/DX2                !
 ! D29   D(27,2,23,24)         179.4293         estimate D2E/DX2                !
 ! D30   D(27,2,23,25)          -0.1779         estimate D2E/DX2                !
 ! D31   D(20,2,27,1)            9.2982         estimate D2E/DX2                !
 ! D32   D(20,2,27,3)         -176.3874         estimate D2E/DX2                !
 ! D33   D(23,2,27,1)         -173.5939         estimate D2E/DX2                !
 ! D34   D(23,2,27,3)            0.7205         estimate D2E/DX2                !
 ! D35   D(27,3,25,23)           0.9353         estimate D2E/DX2                !
 ! D36   D(27,3,25,26)        -177.9951         estimate D2E/DX2                !
 ! D37   D(28,3,25,23)        -178.5817         estimate D2E/DX2                !
 ! D38   D(28,3,25,26)           2.4879         estimate D2E/DX2                !
 ! D39   D(25,3,27,1)          175.1416         estimate D2E/DX2                !
 ! D40   D(25,3,27,2)           -1.0226         estimate D2E/DX2                !
 ! D41   D(28,3,27,1)           -5.2637         estimate D2E/DX2                !
 ! D42   D(28,3,27,2)          178.5721         estimate D2E/DX2                !
 ! D43   D(25,3,28,29)        -179.0583         estimate D2E/DX2                !
 ! D44   D(25,3,28,35)           0.2558         estimate D2E/DX2                !
 ! D45   D(27,3,28,29)           1.4444         estimate D2E/DX2                !
 ! D46   D(27,3,28,35)        -179.2415         estimate D2E/DX2                !
 ! D47   D(37,4,30,29)          -0.6402         estimate D2E/DX2                !
 ! D48   D(37,4,30,31)        -177.2768         estimate D2E/DX2                !
 ! D49   D(38,4,30,29)         170.9842         estimate D2E/DX2                !
 ! D50   D(38,4,30,31)          -5.6524         estimate D2E/DX2                !
 ! D51   D(30,4,37,1)            1.1976         estimate D2E/DX2                !
 ! D52   D(30,4,37,5)          173.444          estimate D2E/DX2                !
 ! D53   D(38,4,37,1)         -172.0724         estimate D2E/DX2                !
 ! D54   D(38,4,37,5)            0.174          estimate D2E/DX2                !
 ! D55   D(30,4,38,39)           6.7386         estimate D2E/DX2                !
 ! D56   D(30,4,38,40)        -172.3881         estimate D2E/DX2                !
 ! D57   D(37,4,38,39)         178.6889         estimate D2E/DX2                !
 ! D58   D(37,4,38,40)          -0.4379         estimate D2E/DX2                !
 ! D59   D(40,5,37,1)          168.9402         estimate D2E/DX2                !
 ! D60   D(40,5,37,4)            0.1579         estimate D2E/DX2                !
 ! D61   D(42,5,37,1)          -11.0092         estimate D2E/DX2                !
 ! D62   D(42,5,37,4)         -179.7914         estimate D2E/DX2                !
 ! D63   D(37,5,40,38)          -0.4314         estimate D2E/DX2                !
 ! D64   D(37,5,40,41)         179.8654         estimate D2E/DX2                !
 ! D65   D(42,5,40,38)         179.5178         estimate D2E/DX2                !
 ! D66   D(42,5,40,41)          -0.1853         estimate D2E/DX2                !
 ! D67   D(37,5,42,43)         127.5938         estimate D2E/DX2                !
 ! D68   D(37,5,42,44)          11.9793         estimate D2E/DX2                !
 ! D69   D(37,5,42,45)        -109.4638         estimate D2E/DX2                !
 ! D70   D(40,5,42,43)         -52.3488         estimate D2E/DX2                !
 ! D71   D(40,5,42,44)        -167.9633         estimate D2E/DX2                !
 ! D72   D(40,5,42,45)          70.5935         estimate D2E/DX2                !
 ! D73   D(1,6,63,55)           -5.3371         estimate D2E/DX2                !
 ! D74   D(1,6,63,62)          172.0358         estimate D2E/DX2                !
 ! D75   D(64,6,63,55)        -178.1079         estimate D2E/DX2                !
 ! D76   D(64,6,63,62)          -0.735          estimate D2E/DX2                !
 ! D77   D(1,6,64,65)         -169.4923         estimate D2E/DX2                !
 ! D78   D(1,6,64,71)            1.0186         estimate D2E/DX2                !
 ! D79   D(63,6,64,65)           2.5034         estimate D2E/DX2                !
 ! D80   D(63,6,64,71)         173.0143         estimate D2E/DX2                !
 ! D81   D(110,7,108,9)          2.0799         estimate D2E/DX2                !
 ! D82   D(110,7,108,103)     -173.8199         estimate D2E/DX2                !
 ! D83   D(108,7,110,8)         -0.6553         estimate D2E/DX2                !
 ! D84   D(108,7,110,122)      177.2422         estimate D2E/DX2                !
 ! D85   D(110,8,109,9)          0.018          estimate D2E/DX2                !
 ! D86   D(110,8,109,111)      178.1048         estimate D2E/DX2                !
 ! D87   D(109,8,110,7)         -0.3552         estimate D2E/DX2                !
 ! D88   D(109,8,110,122)     -178.2481         estimate D2E/DX2                !
 ! D89   D(109,9,108,7)         -2.3611         estimate D2E/DX2                !
 ! D90   D(109,9,108,103)      173.5048         estimate D2E/DX2                !
 ! D91   D(108,9,109,8)          1.277          estimate D2E/DX2                !
 ! D92   D(108,9,109,111)     -176.8044         estimate D2E/DX2                !
 ! D93   D(11,10,14,15)        178.1694         estimate D2E/DX2                !
 ! D94   D(11,10,14,16)         61.6198         estimate D2E/DX2                !
 ! D95   D(11,10,14,17)        -59.5673         estimate D2E/DX2                !
 ! D96   D(12,10,14,15)         58.4142         estimate D2E/DX2                !
 ! D97   D(12,10,14,16)        -58.1354         estimate D2E/DX2                !
 ! D98   D(12,10,14,17)       -179.3225         estimate D2E/DX2                !
 ! D99   D(13,10,14,15)        -61.9154         estimate D2E/DX2                !
 ! D100  D(13,10,14,16)       -178.465          estimate D2E/DX2                !
 ! D101  D(13,10,14,17)         60.3479         estimate D2E/DX2                !
 ! D102  D(10,14,17,18)         54.5504         estimate D2E/DX2                !
 ! D103  D(10,14,17,19)        -62.8591         estimate D2E/DX2                !
 ! D104  D(10,14,17,20)        174.9919         estimate D2E/DX2                !
 ! D105  D(15,14,17,18)        177.0407         estimate D2E/DX2                !
 ! D106  D(15,14,17,19)         59.6312         estimate D2E/DX2                !
 ! D107  D(15,14,17,20)        -62.5178         estimate D2E/DX2                !
 ! D108  D(16,14,17,18)        -66.8582         estimate D2E/DX2                !
 ! D109  D(16,14,17,19)        175.7323         estimate D2E/DX2                !
 ! D110  D(16,14,17,20)         53.5833         estimate D2E/DX2                !
 ! D111  D(14,17,20,2)        -178.5179         estimate D2E/DX2                !
 ! D112  D(14,17,20,21)        -57.6447         estimate D2E/DX2                !
 ! D113  D(14,17,20,22)         61.6859         estimate D2E/DX2                !
 ! D114  D(18,17,20,2)         -57.3291         estimate D2E/DX2                !
 ! D115  D(18,17,20,21)         63.544          estimate D2E/DX2                !
 ! D116  D(18,17,20,22)       -177.1253         estimate D2E/DX2                !
 ! D117  D(19,17,20,2)          58.8386         estimate D2E/DX2                !
 ! D118  D(19,17,20,21)        179.7118         estimate D2E/DX2                !
 ! D119  D(19,17,20,22)        -60.9575         estimate D2E/DX2                !
 ! D120  D(2,23,25,3)           -0.4479         estimate D2E/DX2                !
 ! D121  D(2,23,25,26)         178.364          estimate D2E/DX2                !
 ! D122  D(24,23,25,3)         179.9923         estimate D2E/DX2                !
 ! D123  D(24,23,25,26)         -1.1957         estimate D2E/DX2                !
 ! D124  D(3,28,29,1)            3.4604         estimate D2E/DX2                !
 ! D125  D(3,28,29,30)         177.1454         estimate D2E/DX2                !
 ! D126  D(35,28,29,1)        -175.9            estimate D2E/DX2                !
 ! D127  D(35,28,29,30)         -2.215          estimate D2E/DX2                !
 ! D128  D(3,28,35,33)        -179.1408         estimate D2E/DX2                !
 ! D129  D(3,28,35,36)          -0.5545         estimate D2E/DX2                !
 ! D130  D(29,28,35,33)          0.1077         estimate D2E/DX2                !
 ! D131  D(29,28,35,36)        178.694          estimate D2E/DX2                !
 ! D132  D(1,29,30,4)           -0.2643         estimate D2E/DX2                !
 ! D133  D(1,29,30,31)         176.5931         estimate D2E/DX2                !
 ! D134  D(28,29,30,4)        -173.9267         estimate D2E/DX2                !
 ! D135  D(28,29,30,31)          2.9307         estimate D2E/DX2                !
 ! D136  D(4,30,31,32)          -2.5878         estimate D2E/DX2                !
 ! D137  D(4,30,31,33)         174.8214         estimate D2E/DX2                !
 ! D138  D(29,30,31,32)       -178.8984         estimate D2E/DX2                !
 ! D139  D(29,30,31,33)         -1.4892         estimate D2E/DX2                !
 ! D140  D(30,31,33,34)       -178.1276         estimate D2E/DX2                !
 ! D141  D(30,31,33,35)         -0.709          estimate D2E/DX2                !
 ! D142  D(32,31,33,34)         -0.665          estimate D2E/DX2                !
 ! D143  D(32,31,33,35)        176.7536         estimate D2E/DX2                !
 ! D144  D(31,33,35,28)          1.3819         estimate D2E/DX2                !
 ! D145  D(31,33,35,36)       -177.2299         estimate D2E/DX2                !
 ! D146  D(34,33,35,28)        178.8002         estimate D2E/DX2                !
 ! D147  D(34,33,35,36)          0.1884         estimate D2E/DX2                !
 ! D148  D(4,38,40,5)            0.5099         estimate D2E/DX2                !
 ! D149  D(4,38,40,41)        -179.8215         estimate D2E/DX2                !
 ! D150  D(39,38,40,5)        -178.5208         estimate D2E/DX2                !
 ! D151  D(39,38,40,41)          1.1478         estimate D2E/DX2                !
 ! D152  D(5,42,45,46)         -64.9763         estimate D2E/DX2                !
 ! D153  D(5,42,45,47)          51.6915         estimate D2E/DX2                !
 ! D154  D(5,42,45,48)         172.7655         estimate D2E/DX2                !
 ! D155  D(43,42,45,46)         56.4594         estimate D2E/DX2                !
 ! D156  D(43,42,45,47)        173.1272         estimate D2E/DX2                !
 ! D157  D(43,42,45,48)        -65.7988         estimate D2E/DX2                !
 ! D158  D(44,42,45,46)        176.0734         estimate D2E/DX2                !
 ! D159  D(44,42,45,47)        -67.2588         estimate D2E/DX2                !
 ! D160  D(44,42,45,48)         53.8152         estimate D2E/DX2                !
 ! D161  D(42,45,48,49)        -62.7931         estimate D2E/DX2                !
 ! D162  D(42,45,48,50)         53.3138         estimate D2E/DX2                !
 ! D163  D(42,45,48,51)        175.4525         estimate D2E/DX2                !
 ! D164  D(46,45,48,49)        175.0866         estimate D2E/DX2                !
 ! D165  D(46,45,48,50)        -68.8065         estimate D2E/DX2                !
 ! D166  D(46,45,48,51)         53.3323         estimate D2E/DX2                !
 ! D167  D(47,45,48,49)         57.8423         estimate D2E/DX2                !
 ! D168  D(47,45,48,50)        173.9492         estimate D2E/DX2                !
 ! D169  D(47,45,48,51)        -63.912          estimate D2E/DX2                !
 ! D170  D(45,48,51,52)        178.5248         estimate D2E/DX2                !
 ! D171  D(45,48,51,53)         58.6208         estimate D2E/DX2                !
 ! D172  D(45,48,51,54)        -61.2503         estimate D2E/DX2                !
 ! D173  D(49,48,51,52)         57.2982         estimate D2E/DX2                !
 ! D174  D(49,48,51,53)        -62.6059         estimate D2E/DX2                !
 ! D175  D(49,48,51,54)        177.523          estimate D2E/DX2                !
 ! D176  D(50,48,51,52)        -59.4149         estimate D2E/DX2                !
 ! D177  D(50,48,51,53)       -179.3189         estimate D2E/DX2                !
 ! D178  D(50,48,51,54)         60.81           estimate D2E/DX2                !
 ! D179  D(56,55,57,58)         -0.53           estimate D2E/DX2                !
 ! D180  D(56,55,57,59)        178.2593         estimate D2E/DX2                !
 ! D181  D(63,55,57,58)       -179.4829         estimate D2E/DX2                !
 ! D182  D(63,55,57,59)         -0.6936         estimate D2E/DX2                !
 ! D183  D(56,55,63,6)          -1.5472         estimate D2E/DX2                !
 ! D184  D(56,55,63,62)       -178.7045         estimate D2E/DX2                !
 ! D185  D(57,55,63,6)         177.4223         estimate D2E/DX2                !
 ! D186  D(57,55,63,62)          0.265          estimate D2E/DX2                !
 ! D187  D(55,57,59,60)          0.7893         estimate D2E/DX2                !
 ! D188  D(55,57,59,72)       -176.8221         estimate D2E/DX2                !
 ! D189  D(58,57,59,60)        179.5693         estimate D2E/DX2                !
 ! D190  D(58,57,59,72)          1.9579         estimate D2E/DX2                !
 ! D191  D(57,59,60,61)       -179.0747         estimate D2E/DX2                !
 ! D192  D(57,59,60,62)         -0.4438         estimate D2E/DX2                !
 ! D193  D(72,59,60,61)         -1.5359         estimate D2E/DX2                !
 ! D194  D(72,59,60,62)        177.095          estimate D2E/DX2                !
 ! D195  D(57,59,72,73)       -179.3015         estimate D2E/DX2                !
 ! D196  D(57,59,72,77)        -58.857          estimate D2E/DX2                !
 ! D197  D(57,59,72,81)         60.8878         estimate D2E/DX2                !
 ! D198  D(60,59,72,73)          3.1722         estimate D2E/DX2                !
 ! D199  D(60,59,72,77)        123.6167         estimate D2E/DX2                !
 ! D200  D(60,59,72,81)       -116.6385         estimate D2E/DX2                !
 ! D201  D(59,60,62,63)          0.0422         estimate D2E/DX2                !
 ! D202  D(59,60,62,65)       -175.013          estimate D2E/DX2                !
 ! D203  D(61,60,62,63)        178.6846         estimate D2E/DX2                !
 ! D204  D(61,60,62,65)          3.6293         estimate D2E/DX2                !
 ! D205  D(60,62,63,6)        -177.5487         estimate D2E/DX2                !
 ! D206  D(60,62,63,55)          0.0516         estimate D2E/DX2                !
 ! D207  D(65,62,63,6)          -1.2277         estimate D2E/DX2                !
 ! D208  D(65,62,63,55)        176.3726         estimate D2E/DX2                !
 ! D209  D(60,62,65,64)        178.1884         estimate D2E/DX2                !
 ! D210  D(60,62,65,66)          8.044          estimate D2E/DX2                !
 ! D211  D(63,62,65,64)          2.6108         estimate D2E/DX2                !
 ! D212  D(63,62,65,66)       -167.5335         estimate D2E/DX2                !
 ! D213  D(6,64,65,62)          -3.2364         estimate D2E/DX2                !
 ! D214  D(6,64,65,66)         168.3588         estimate D2E/DX2                !
 ! D215  D(71,64,65,62)       -174.449          estimate D2E/DX2                !
 ! D216  D(71,64,65,66)         -2.8538         estimate D2E/DX2                !
 ! D217  D(6,64,71,69)        -163.4908         estimate D2E/DX2                !
 ! D218  D(6,64,71,98)          13.2608         estimate D2E/DX2                !
 ! D219  D(65,64,71,69)          6.1853         estimate D2E/DX2                !
 ! D220  D(65,64,71,98)       -177.063          estimate D2E/DX2                !
 ! D221  D(62,65,66,67)         -9.0446         estimate D2E/DX2                !
 ! D222  D(62,65,66,68)        167.3953         estimate D2E/DX2                !
 ! D223  D(64,65,66,67)       -177.9625         estimate D2E/DX2                !
 ! D224  D(64,65,66,68)         -1.5226         estimate D2E/DX2                !
 ! D225  D(65,66,68,69)          2.2188         estimate D2E/DX2                !
 ! D226  D(65,66,68,85)       -177.7179         estimate D2E/DX2                !
 ! D227  D(67,66,68,69)        178.658          estimate D2E/DX2                !
 ! D228  D(67,66,68,85)         -1.2787         estimate D2E/DX2                !
 ! D229  D(66,68,69,70)        177.6264         estimate D2E/DX2                !
 ! D230  D(66,68,69,71)          1.4987         estimate D2E/DX2                !
 ! D231  D(85,68,69,70)         -2.4394         estimate D2E/DX2                !
 ! D232  D(85,68,69,71)       -178.5671         estimate D2E/DX2                !
 ! D233  D(66,68,85,86)       -179.9218         estimate D2E/DX2                !
 ! D234  D(66,68,85,90)         60.06           estimate D2E/DX2                !
 ! D235  D(66,68,85,94)        -59.4352         estimate D2E/DX2                !
 ! D236  D(69,68,85,86)          0.1434         estimate D2E/DX2                !
 ! D237  D(69,68,85,90)       -119.8747         estimate D2E/DX2                !
 ! D238  D(69,68,85,94)        120.63           estimate D2E/DX2                !
 ! D239  D(68,69,71,64)         -5.5985         estimate D2E/DX2                !
 ! D240  D(68,69,71,98)        177.699          estimate D2E/DX2                !
 ! D241  D(70,69,71,64)        178.1665         estimate D2E/DX2                !
 ! D242  D(70,69,71,98)          1.464          estimate D2E/DX2                !
 ! D243  D(64,71,98,99)       -131.7161         estimate D2E/DX2                !
 ! D244  D(64,71,98,106)        42.4824         estimate D2E/DX2                !
 ! D245  D(69,71,98,99)         44.8111         estimate D2E/DX2                !
 ! D246  D(69,71,98,106)      -140.9904         estimate D2E/DX2                !
 ! D247  D(59,72,73,74)        -61.5502         estimate D2E/DX2                !
 ! D248  D(59,72,73,75)        179.3945         estimate D2E/DX2                !
 ! D249  D(59,72,73,76)         60.2137         estimate D2E/DX2                !
 ! D250  D(77,72,73,74)        177.0086         estimate D2E/DX2                !
 ! D251  D(77,72,73,75)         57.9533         estimate D2E/DX2                !
 ! D252  D(77,72,73,76)        -61.2275         estimate D2E/DX2                !
 ! D253  D(81,72,73,74)         58.5956         estimate D2E/DX2                !
 ! D254  D(81,72,73,75)        -60.4597         estimate D2E/DX2                !
 ! D255  D(81,72,73,76)       -179.6405         estimate D2E/DX2                !
 ! D256  D(59,72,77,78)        -61.7247         estimate D2E/DX2                !
 ! D257  D(59,72,77,79)        178.5935         estimate D2E/DX2                !
 ! D258  D(59,72,77,80)         58.837          estimate D2E/DX2                !
 ! D259  D(73,72,77,78)         61.1545         estimate D2E/DX2                !
 ! D260  D(73,72,77,79)        -58.5273         estimate D2E/DX2                !
 ! D261  D(73,72,77,80)       -178.2838         estimate D2E/DX2                !
 ! D262  D(81,72,77,78)        178.8571         estimate D2E/DX2                !
 ! D263  D(81,72,77,79)         59.1753         estimate D2E/DX2                !
 ! D264  D(81,72,77,80)        -60.5813         estimate D2E/DX2                !
 ! D265  D(59,72,81,82)        -60.3699         estimate D2E/DX2                !
 ! D266  D(59,72,81,83)        179.7392         estimate D2E/DX2                !
 ! D267  D(59,72,81,84)         59.9641         estimate D2E/DX2                !
 ! D268  D(73,72,81,82)        177.3662         estimate D2E/DX2                !
 ! D269  D(73,72,81,83)         57.4753         estimate D2E/DX2                !
 ! D270  D(73,72,81,84)        -62.2998         estimate D2E/DX2                !
 ! D271  D(77,72,81,82)         59.7116         estimate D2E/DX2                !
 ! D272  D(77,72,81,83)        -60.1793         estimate D2E/DX2                !
 ! D273  D(77,72,81,84)       -179.9544         estimate D2E/DX2                !
 ! D274  D(68,85,86,87)        -60.4425         estimate D2E/DX2                !
 ! D275  D(68,85,86,88)       -179.5965         estimate D2E/DX2                !
 ! D276  D(68,85,86,89)         61.1961         estimate D2E/DX2                !
 ! D277  D(90,85,86,87)         59.8661         estimate D2E/DX2                !
 ! D278  D(90,85,86,88)        -59.288          estimate D2E/DX2                !
 ! D279  D(90,85,86,89)       -178.4953         estimate D2E/DX2                !
 ! D280  D(94,85,86,87)        178.5937         estimate D2E/DX2                !
 ! D281  D(94,85,86,88)         59.4397         estimate D2E/DX2                !
 ! D282  D(94,85,86,89)        -59.7677         estimate D2E/DX2                !
 ! D283  D(68,85,90,91)        -60.3126         estimate D2E/DX2                !
 ! D284  D(68,85,90,92)        179.7639         estimate D2E/DX2                !
 ! D285  D(68,85,90,93)         60.1513         estimate D2E/DX2                !
 ! D286  D(86,85,90,91)        177.0201         estimate D2E/DX2                !
 ! D287  D(86,85,90,92)         57.0966         estimate D2E/DX2                !
 ! D288  D(86,85,90,93)        -62.5159         estimate D2E/DX2                !
 ! D289  D(94,85,90,91)         59.004          estimate D2E/DX2                !
 ! D290  D(94,85,90,92)        -60.9194         estimate D2E/DX2                !
 ! D291  D(94,85,90,93)        179.468          estimate D2E/DX2                !
 ! D292  D(68,85,94,95)        -61.0269         estimate D2E/DX2                !
 ! D293  D(68,85,94,96)        179.341          estimate D2E/DX2                !
 ! D294  D(68,85,94,97)         59.4395         estimate D2E/DX2                !
 ! D295  D(86,85,94,95)         61.9991         estimate D2E/DX2                !
 ! D296  D(86,85,94,96)        -57.633          estimate D2E/DX2                !
 ! D297  D(86,85,94,97)       -177.5345         estimate D2E/DX2                !
 ! D298  D(90,85,94,95)        179.9367         estimate D2E/DX2                !
 ! D299  D(90,85,94,96)         60.3046         estimate D2E/DX2                !
 ! D300  D(90,85,94,97)        -59.5969         estimate D2E/DX2                !
 ! D301  D(71,98,99,100)        -7.4335         estimate D2E/DX2                !
 ! D302  D(71,98,99,101)       166.4039         estimate D2E/DX2                !
 ! D303  D(106,98,99,100)      178.1987         estimate D2E/DX2                !
 ! D304  D(106,98,99,101)       -7.9639         estimate D2E/DX2                !
 ! D305  D(71,98,106,104)     -170.9318         estimate D2E/DX2                !
 ! D306  D(71,98,106,107)       12.6753         estimate D2E/DX2                !
 ! D307  D(99,98,106,104)        3.5312         estimate D2E/DX2                !
 ! D308  D(99,98,106,107)     -172.8616         estimate D2E/DX2                !
 ! D309  D(98,99,101,102)     -174.0543         estimate D2E/DX2                !
 ! D310  D(98,99,101,103)        3.9973         estimate D2E/DX2                !
 ! D311  D(100,99,101,102)      -0.2528         estimate D2E/DX2                !
 ! D312  D(100,99,101,103)     177.7988         estimate D2E/DX2                !
 ! D313  D(99,101,103,104)       4.431          estimate D2E/DX2                !
 ! D314  D(99,101,103,108)    -170.6468         estimate D2E/DX2                !
 ! D315  D(102,101,103,104)   -177.4742         estimate D2E/DX2                !
 ! D316  D(102,101,103,108)      7.4481         estimate D2E/DX2                !
 ! D317  D(101,103,104,105)    175.6184         estimate D2E/DX2                !
 ! D318  D(101,103,104,106)     -8.8454         estimate D2E/DX2                !
 ! D319  D(108,103,104,105)     -9.1925         estimate D2E/DX2                !
 ! D320  D(108,103,104,106)    166.3437         estimate D2E/DX2                !
 ! D321  D(101,103,108,7)     -177.1838         estimate D2E/DX2                !
 ! D322  D(101,103,108,9)        6.7704         estimate D2E/DX2                !
 ! D323  D(104,103,108,7)        7.8554         estimate D2E/DX2                !
 ! D324  D(104,103,108,9)     -168.1904         estimate D2E/DX2                !
 ! D325  D(103,104,106,98)       4.8965         estimate D2E/DX2                !
 ! D326  D(103,104,106,107)   -178.7512         estimate D2E/DX2                !
 ! D327  D(105,104,106,98)    -179.6672         estimate D2E/DX2                !
 ! D328  D(105,104,106,107)     -3.3149         estimate D2E/DX2                !
 ! D329  D(8,109,111,112)     -178.0438         estimate D2E/DX2                !
 ! D330  D(8,109,111,120)        0.994          estimate D2E/DX2                !
 ! D331  D(9,109,111,112)        0.2111         estimate D2E/DX2                !
 ! D332  D(9,109,111,120)      179.2488         estimate D2E/DX2                !
 ! D333  D(7,110,122,123)     -176.4507         estimate D2E/DX2                !
 ! D334  D(7,110,122,131)        1.4364         estimate D2E/DX2                !
 ! D335  D(8,110,122,123)        1.624          estimate D2E/DX2                !
 ! D336  D(8,110,122,131)      179.5111         estimate D2E/DX2                !
 ! D337  D(109,111,112,113)     -1.0199         estimate D2E/DX2                !
 ! D338  D(109,111,112,114)    178.9965         estimate D2E/DX2                !
 ! D339  D(120,111,112,113)    179.9299         estimate D2E/DX2                !
 ! D340  D(120,111,112,114)     -0.0537         estimate D2E/DX2                !
 ! D341  D(109,111,120,118)   -179.0165         estimate D2E/DX2                !
 ! D342  D(109,111,120,121)      0.9973         estimate D2E/DX2                !
 ! D343  D(112,111,120,118)      0.0345         estimate D2E/DX2                !
 ! D344  D(112,111,120,121)   -179.9517         estimate D2E/DX2                !
 ! D345  D(111,112,114,115)    179.8505         estimate D2E/DX2                !
 ! D346  D(111,112,114,116)      0.0126         estimate D2E/DX2                !
 ! D347  D(113,112,114,115)     -0.1326         estimate D2E/DX2                !
 ! D348  D(113,112,114,116)   -179.9704         estimate D2E/DX2                !
 ! D349  D(112,114,116,117)    179.9486         estimate D2E/DX2                !
 ! D350  D(112,114,116,118)      0.0481         estimate D2E/DX2                !
 ! D351  D(115,114,116,117)      0.1109         estimate D2E/DX2                !
 ! D352  D(115,114,116,118)   -179.7896         estimate D2E/DX2                !
 ! D353  D(114,116,118,119)    179.8641         estimate D2E/DX2                !
 ! D354  D(114,116,118,120)     -0.0673         estimate D2E/DX2                !
 ! D355  D(117,116,118,119)     -0.0364         estimate D2E/DX2                !
 ! D356  D(117,116,118,120)   -179.9678         estimate D2E/DX2                !
 ! D357  D(116,118,120,111)      0.0259         estimate D2E/DX2                !
 ! D358  D(116,118,120,121)   -179.9884         estimate D2E/DX2                !
 ! D359  D(119,118,120,111)   -179.9056         estimate D2E/DX2                !
 ! D360  D(119,118,120,121)      0.0801         estimate D2E/DX2                !
 ! D361  D(110,122,123,124)     -2.1698         estimate D2E/DX2                !
 ! D362  D(110,122,123,125)    177.4161         estimate D2E/DX2                !
 ! D363  D(131,122,123,124)    179.9185         estimate D2E/DX2                !
 ! D364  D(131,122,123,125)     -0.4956         estimate D2E/DX2                !
 ! D365  D(110,122,131,129)   -177.5676         estimate D2E/DX2                !
 ! D366  D(110,122,131,132)    -11.2414         estimate D2E/DX2                !
 ! D367  D(123,122,131,129)      0.351          estimate D2E/DX2                !
 ! D368  D(123,122,131,132)    166.6772         estimate D2E/DX2                !
 ! D369  D(122,123,125,126)   -179.8369         estimate D2E/DX2                !
 ! D370  D(122,123,125,127)      0.2236         estimate D2E/DX2                !
 ! D371  D(124,123,125,126)     -0.2632         estimate D2E/DX2                !
 ! D372  D(124,123,125,127)    179.7973         estimate D2E/DX2                !
 ! D373  D(123,125,127,128)    179.917          estimate D2E/DX2                !
 ! D374  D(123,125,127,129)      0.1982         estimate D2E/DX2                !
 ! D375  D(126,125,127,128)     -0.0224         estimate D2E/DX2                !
 ! D376  D(126,125,127,129)   -179.7412         estimate D2E/DX2                !
 ! D377  D(125,127,129,130)    179.4485         estimate D2E/DX2                !
 ! D378  D(125,127,129,131)     -0.3427         estimate D2E/DX2                !
 ! D379  D(128,127,129,130)     -0.2702         estimate D2E/DX2                !
 ! D380  D(128,127,129,131)    179.9386         estimate D2E/DX2                !
 ! D381  D(127,129,131,122)      0.0665         estimate D2E/DX2                !
 ! D382  D(127,129,131,132)   -164.4716         estimate D2E/DX2                !
 ! D383  D(130,129,131,122)   -179.725          estimate D2E/DX2                !
 ! D384  D(130,129,131,132)     15.7369         estimate D2E/DX2                !
 --------------------------------------------------------------------------------
 Trust Radius=3.00D-01 FncErr=1.00D-07 GrdErr=1.00D-06 EigMax=2.50D+02 EigMin=1.00D-04
 Number of steps in this run=    792 maximum allowed number of steps=    792.
 GradGradGradGradGradGradGradGradGradGradGradGradGradGradGradGradGradGrad

 Stoichiometry    C61H62N8Pd
 Framework group  C1[X(C61H62N8Pd)]
 Deg. of freedom   390
 Full point group                 C1      NOp   1
 Largest Abelian subgroup         C1      NOp   1
 Largest concise Abelian subgroup C1      NOp   1
                         Standard orientation:                         
 ---------------------------------------------------------------------
 Center     Atomic      Atomic             Coordinates (Angstroms)
 Number     Number       Type             X           Y           Z
 ---------------------------------------------------------------------
      1         46           0       -0.215208    0.609748   -0.480806
      2          7           0        0.001579   -2.354387   -1.738562
      3          7           0        1.703886   -1.064587   -1.862711
      4          7           0        1.184362    3.118777   -0.046032
      5          7           0       -0.630601    3.408411    1.054312
      6          7           0       -2.180147    0.099309    0.169820
      7          7           0        4.203797    0.455547    1.465423
      8          7           0        6.212373   -0.114837    0.347333
      9          7           0        4.511128   -1.747517    0.610858
     10          6           0       -4.778836   -1.994612   -3.128106
     11          1           0       -4.765350   -0.921256   -2.917845
     12          1           0       -5.794104   -2.357039   -2.943225
     13          1           0       -4.563049   -2.132019   -4.192740
     14          6           0       -3.762696   -2.722329   -2.260997
     15          1           0       -3.807024   -3.801457   -2.456059
     16          1           0       -4.021758   -2.588182   -1.204703
     17          6           0       -2.345370   -2.219375   -2.492888
     18          1           0       -2.311194   -1.134473   -2.349935
     19          1           0       -2.037709   -2.413676   -3.527632
     20          6           0       -1.349051   -2.859598   -1.541519
     21          1           0       -1.633584   -2.674012   -0.505855
     22          1           0       -1.310672   -3.942482   -1.683542
     23          6           0        1.023591   -3.079737   -2.323092
     24          1           0        0.893326   -4.104822   -2.626802
     25          6           0        2.103784   -2.265650   -2.396109
     26          1           0        3.101361   -2.445198   -2.758873
     27          6           0        0.405004   -1.107697   -1.436641
     28          6           0        2.386790    0.159124   -1.698762
     29          6           0        1.579313    1.099444   -1.085563
     30          6           0        2.104952    2.344096   -0.789722
     31          6           0        3.400330    2.690718   -1.146427
     32          1           0        3.824669    3.657755   -0.902484
     33          6           0        4.177957    1.729200   -1.790717
     34          1           0        5.202040    1.969690   -2.050089
     35          6           0        3.693945    0.450525   -2.063549
     36          1           0        4.338185   -0.288927   -2.525632
     37          6           0       -0.022575    2.536034    0.230255
     38          6           0        1.320054    4.325986    0.598456
     39          1           0        2.207114    4.932582    0.527157
[...]
 Alpha virt. eigenvalues --    2.45707   2.46065   2.46453   2.46881   2.47301
 Alpha virt. eigenvalues --    2.47339   2.48937   2.49436   2.49574   2.49892
 Alpha virt. eigenvalues --    2.50077   2.50624   2.50975   2.51491   2.51674
 Alpha virt. eigenvalues --    2.51822   2.52129   2.52320   2.52456   2.52812
 Alpha virt. eigenvalues --    2.52942   2.53277   2.53959   2.54098   2.54249
 Alpha virt. eigenvalues --    2.54464   2.54617   2.54789   2.54951   2.55147
 Alpha virt. eigenvalues --    2.55560   2.55605   2.55730   2.56580   2.57167
 Alpha virt. eigenvalues --    2.57484   2.57748   2.57853   2.58162   2.58466
 Alpha virt. eigenvalues --    2.58550   2.58663   2.59376   2.59512   2.59654
 Alpha virt. eigenvalues --    2.59785   2.60096   2.60668   2.60794   2.60915
 Alpha virt. eigenvalues --    2.61060   2.61272   2.61407   2.61554   2.61863
 Alpha virt. eigenvalues --    2.61994   2.62097   2.62439   2.62724   2.62889
 Alpha virt. eigenvalues --    2.63116   2.63403   2.63675   2.63848   2.63945
 Alpha virt. eigenvalues --    2.64473   2.64768   2.64948   2.65215   2.65616
 Alpha virt. eigenvalues --    2.66003   2.66131   2.66330   2.66551   2.67020
 Alpha virt. eigenvalues --    2.67238   2.67384   2.67677   2.67921   2.68315
 Alpha virt. eigenvalues --    2.68545   2.68963   2.69159   2.69407   2.69649
 Alpha virt. eigenvalues --    2.70026   2.70263   2.70529   2.70791   2.70866
 Alpha virt. eigenvalues --    2.71015   2.71129   2.71563   2.71752   2.72185
 Alpha virt. eigenvalues --    2.72376   2.72699   2.72817   2.73182   2.73350
 Alpha virt. eigenvalues --    2.73745   2.73888   2.73999   2.74199   2.74684
 Alpha virt. eigenvalues --    2.74735   2.75154   2.75167   2.75347   2.75708
 Alpha virt. eigenvalues --    2.75871   2.76542   2.76623   2.76849   2.77120
 Alpha virt. eigenvalues --    2.77203   2.77335   2.77478   2.77919   2.78544
 Alpha virt. eigenvalues --    2.78681   2.79176   2.79411   2.79765   2.80074
 Alpha virt. eigenvalues --    2.80421   2.80630   2.80734   2.81169   2.81723
 Alpha virt. eigenvalues --    2.82231   2.82355   2.82587   2.82702   2.83416
 Alpha virt. eigenvalues --    2.83701   2.84038   2.84314   2.84549   2.85243
 Alpha virt. eigenvalues --    2.85296   2.85673   2.86021   2.86560   2.86773
 Alpha virt. eigenvalues --    2.86876   2.87263   2.87546   2.88008   2.88405
 Alpha virt. eigenvalues --    2.89141   2.89644   2.89799   2.89940   2.90098
 Alpha virt. eigenvalues --    2.90979   2.91263   2.91616   2.91974   2.92830
 Alpha virt. eigenvalues --    2.92897   2.93056   2.93530   2.94002   2.94649
 Alpha virt. eigenvalues --    2.94759   2.94997   2.95070   2.95527   2.96205
 Alpha virt. eigenvalues --    2.96515   2.97032   2.97757   2.98128   2.98417
 Alpha virt. eigenvalues --    2.99012   2.99415   2.99710   3.00552   3.01103
 Alpha virt. eigenvalues --    3.01236   3.02126   3.02452   3.02580   3.03016
 Alpha virt. eigenvalues --    3.03519   3.04596   3.04913   3.05075   3.05253
 Alpha virt. eigenvalues --    3.06073   3.06906   3.07040   3.08026   3.08122
 Alpha virt. eigenvalues --    3.08512   3.09234   3.09444   3.09797   3.09876
 Alpha virt. eigenvalues --    3.10291   3.10605   3.11002   3.11935   3.12428
 Alpha virt. eigenvalues --    3.13548   3.15894   3.16547   3.16636   3.16984
 Alpha virt. eigenvalues --    3.17117   3.18472   3.19267   3.20203   3.20619
 Alpha virt. eigenvalues --    3.22097   3.22671   3.22960   3.23514   3.23852
 Alpha virt. eigenvalues --    3.24029   3.24627   3.25337   3.25853   3.26501
 Alpha virt. eigenvalues --    3.27440   3.28185   3.28412   3.28938   3.29480
 Alpha virt. eigenvalues --    3.30445   3.31164   3.31705   3.31998   3.33374
 Alpha virt. eigenvalues --    3.34605   3.35185   3.36294   3.37641   3.38421
 Alpha virt. eigenvalues --    3.39020   3.39266   3.39938   3.41112   3.41524
 Alpha virt. eigenvalues --    3.42354   3.43532   3.43791   3.44131   3.45910
 Alpha virt. eigenvalues --    3.46154   3.46778   3.48795   3.48988   3.49754
 Alpha virt. eigenvalues --    3.50484   3.51100   3.51210   3.51419   3.51986
 Alpha virt. eigenvalues --    3.53364   3.53474   3.54242   3.57081   3.57939
 Alpha virt. eigenvalues --    3.60036   3.60870   3.63157   3.63339   3.63856
 Alpha virt. eigenvalues --    3.64095   3.65072   3.65265   3.66312   3.67526
 Alpha virt. eigenvalues --    3.68869   3.69731   3.70244   3.70943   3.72065
 Alpha virt. eigenvalues --    3.73008   3.73841   3.74658   3.75886   3.76394
 Alpha virt. eigenvalues --    3.76954   3.77331   3.78496   3.80258   3.80477
 Alpha virt. eigenvalues --    3.80607   3.80833   3.81918   3.82129   3.82507
 Alpha virt. eigenvalues --    3.83104   3.83562   3.84139   3.84202   3.84438
 Alpha virt. eigenvalues --    3.84810   3.84994   3.85472   3.85679   3.85963
 Alpha virt. eigenvalues --    3.86178   3.86613   3.87635   3.87799   3.88716
 Alpha virt. eigenvalues --    3.89180   3.89305   3.89380   3.89875   3.90487
 Alpha virt. eigenvalues --    3.90642   3.91577   3.92373   3.93738   3.94926
 Alpha virt. eigenvalues --    3.95916   3.96348   3.99113   4.00069   4.00495
 Alpha virt. eigenvalues --    4.01301   4.02871   4.03483   4.04337   4.04520
 Alpha virt. eigenvalues --    4.06427   4.07000   4.10668   4.12192   4.13043
 Alpha virt. eigenvalues --    4.13534   4.14502   4.14657   4.14795   4.15831
 Alpha virt. eigenvalues --    4.16213   4.17662   4.18359   4.19145   4.20213
 Alpha virt. eigenvalues --    4.22233   4.22903   4.24147   4.26135   4.26701
 Alpha virt. eigenvalues --    4.28111   4.28565   4.29355   4.30503   4.32238
 Alpha virt. eigenvalues --    4.33113   4.33328   4.33637   4.39048   4.40250
 Alpha virt. eigenvalues --    4.44009   4.47413   4.55786   4.56488   4.59606
 Alpha virt. eigenvalues --    4.63069   4.68285   4.71363   4.72876   4.78101
 Alpha virt. eigenvalues --    4.84218   4.86884   4.86931   4.87901   4.89511
 Alpha virt. eigenvalues --    4.93453   5.01019   5.02124   5.08427   5.15174
 Alpha virt. eigenvalues --    5.17953   5.19715   5.29957   5.30883   5.31645
 Alpha virt. eigenvalues --    5.36946  23.63674  23.66440  23.68769  23.69641
 Alpha virt. eigenvalues --   23.78924  23.82484  23.84547  23.86364  23.92182
 Alpha virt. eigenvalues --   23.92566  23.93020  23.94203  23.94807  23.95939
 Alpha virt. eigenvalues --   23.97957  23.98714  23.99239  23.99776  24.00528
 Alpha virt. eigenvalues --   24.00825  24.01744  24.03088  24.03648  24.03792
 Alpha virt. eigenvalues --   24.04191  24.04503  24.04894  24.04997  24.05612
 Alpha virt. eigenvalues --   24.05639  24.05967  24.06019  24.06326  24.06504
 Alpha virt. eigenvalues --   24.07894  24.08245  24.08593  24.08904  24.09880
 Alpha virt. eigenvalues --   24.11242  24.11611  24.12733  24.16117  24.17653
 Alpha virt. eigenvalues --   24.17895  24.18475  24.20624  24.21281  24.21320
 Alpha virt. eigenvalues --   24.21934  24.23404  24.25635  24.26257  24.28729
 Alpha virt. eigenvalues --   24.29288  24.29685  24.30288  24.30373  24.30859
 Alpha virt. eigenvalues --   24.31341  24.32716  35.62949  35.65354  35.69200
 Alpha virt. eigenvalues --   35.73823  35.77499  35.82977  35.83907  35.84451
 Alpha virt. eigenvalues --   40.36234  40.82556  40.95826  52.17292
          Condensed to atoms (all electrons):
 Mulliken charges:
               1
     1  Pd   0.981396
     2  N   -0.379545
     3  N   -0.423523
     4  N   -0.427278
     5  N   -0.379641
     6  N   -0.688018
     7  N   -0.414521
     8  N   -0.430310
     9  N   -0.419354
    10  C   -0.358213
    11  H    0.169893
    12  H    0.115776
    13  H    0.111371
    14  C   -0.288021
    15  H    0.116112
    16  H    0.171806
    17  C   -0.274711
    18  H    0.187973
    19  H    0.128180
    20  C   -0.103833
    21  H    0.204145
    22  H    0.130395
    23  C   -0.005259
    24  H    0.142711
    25  C    0.020631
    26  H    0.144531
    27  C    0.112331
    28  C    0.284442
    29  C   -0.485292
    30  C    0.289830
    31  C   -0.111658
    32  H    0.115931
    33  C   -0.129777
    34  H    0.119738
    35  C   -0.129990
    36  H    0.113086
    37  C    0.103307
    38  C    0.022636
    39  H    0.147040
    40  C   -0.005729
    41  H    0.145844
    42  C   -0.136912
    43  H    0.156076
    44  H    0.206414
    45  C   -0.256841
    46  H    0.124429
    47  H    0.153397
    48  C   -0.290747
    49  H    0.182750
    50  H    0.122563
    51  C   -0.347852
    52  H    0.125655
    53  H    0.132304
    54  H    0.115972
    55  C   -0.181526
    56  H    0.132886
    57  C   -0.103529
    58  H    0.094782
    59  C   -0.002010
    60  C   -0.093415
    61  H    0.088775
    62  C   -0.110360
    63  C    0.216268
    64  C    0.195984
    65  C   -0.074551
    66  C   -0.050178
    67  H    0.093884
    68  C   -0.003354
    69  C   -0.077130
    70  H    0.102688
    71  C   -0.135049
    72  C   -0.326343
    73  C   -0.316095
    74  H    0.130724
    75  H    0.124957
    76  H    0.130903
    77  C   -0.267782
    78  H    0.133468
    79  H    0.116895
    80  H    0.118324
    81  C   -0.268747
    82  H    0.120111
    83  H    0.115807
    84  H    0.132883
    85  C   -0.337197
    86  C   -0.314378
    87  H    0.127743
    88  H    0.126305
    89  H    0.134680
    90  C   -0.260273
    91  H    0.120184
    92  H    0.117054
    93  H    0.122894
    94  C   -0.257589
    95  H    0.126893
    96  H    0.116608
    97  H    0.119910
    98  C   -0.010523
    99  C   -0.110861
   100  H    0.104812
   101  C   -0.021756
   102  H    0.119798
   103  C   -0.264526
   104  C   -0.007399
   105  H    0.140473
   106  C   -0.205173
   107  H    0.147765
   108  C    0.429156
   109  C    0.433055
   110  C    0.439260
   111  C   -0.300241
   112  C   -0.012807
   113  H    0.131743
   114  C   -0.128132
   115  H    0.114100
   116  C   -0.080274
   117  H    0.116696
   118  C   -0.126055
   119  H    0.114743
   120  C   -0.009176
   121  H    0.132490
   122  C   -0.269691
   123  C   -0.013298
   124  H    0.131631
   125  C   -0.126138
   126  H    0.114886
   127  C   -0.081620
   128  H    0.116293
   129  C   -0.131376
   130  H    0.112486
   131  C   -0.030619
   132  H    0.136538
 Sum of Mulliken charges =  -0.00000
 Mulliken charges with hydrogens summed into heavy atoms:
               1
     1  Pd   0.981396
     2  N   -0.379545
     3  N   -0.423523
     4  N   -0.427278
     5  N   -0.379641
     6  N   -0.688018
     7  N   -0.414521
     8  N   -0.430310
     9  N   -0.419354
    10  C    0.038827
    14  C   -0.000104
    17  C    0.041442
    20  C    0.230707
    23  C    0.137452
    25  C    0.165162
    27  C    0.112331
    28  C    0.284442
    29  C   -0.485292
    30  C    0.289830
    31  C    0.004272
    33  C   -0.010039
    35  C   -0.016904
    37  C    0.103307
    38  C    0.169676
    40  C    0.140114
    42  C    0.225578
    45  C    0.020985
    48  C    0.014567
    51  C    0.026079
    55  C   -0.048640
    57  C   -0.008746
    59  C   -0.002010
    60  C   -0.004641
    62  C   -0.110360
    63  C    0.216268
    64  C    0.195984
    65  C   -0.074551
    66  C    0.043706
    68  C   -0.003354
    69  C    0.025559
    71  C   -0.135049
    72  C   -0.326343
    73  C    0.070488
    77  C    0.100905
    81  C    0.100053
    85  C   -0.337197
    86  C    0.074351
    90  C    0.099860
    94  C    0.105822
    98  C   -0.010523
    99  C   -0.006049
   101  C    0.098042
   103  C   -0.264526
   104  C    0.133074
   106  C   -0.057409
   108  C    0.429156
   109  C    0.433055
   110  C    0.439260
   111  C   -0.300241
   112  C    0.118936
   114  C   -0.014032
   116  C    0.036421
   118  C   -0.011312
   120  C    0.123314
   122  C   -0.269691
   123  C    0.118334
   125  C   -0.011252
   127  C    0.034672
   129  C   -0.018889
   131  C    0.105918
 Electronic spatial extent (au):  <R**2>=          57558.6659
 Charge=             -0.0000 electrons
 Dipole moment (field-independent basis, Debye):
    X=              3.6775    Y=              1.8772    Z=             -1.5258  Tot=              4.4018
 Quadrupole moment (field-independent basis, Debye-Ang):
   XX=           -417.1892   YY=           -370.4165   ZZ=           -430.4710
   XY=              5.5193   XZ=            -18.8039   YZ=             26.1404
 Traceless Quadrupole moment (field-independent basis, Debye-Ang):
   XX=            -11.1636   YY=             35.6090   ZZ=            -24.4454
   XY=              5.5193   XZ=            -18.8039   YZ=             26.1404
 Octapole moment (field-independent basis, Debye-Ang**2):
  XXX=            205.3870  YYY=            108.7405  ZZZ=            -43.5768  XYY=            129.7449
  XXY=             43.9548  XXZ=           -145.5135  XZZ=             -0.3113  YZZ=              6.8587
  YYZ=              2.5915  XYZ=             60.6153
 Hexadecapole moment (field-independent basis, Debye-Ang**3):
 XXXX=         -50640.4662 YYYY=         -18138.5548 ZZZZ=          -8632.7346 XXXY=            262.6701
 XXXZ=          -1218.8301 YYYX=            256.7828 YYYZ=            638.1006 ZZZX=            -89.5532
 ZZZY=            141.9884 XXYY=         -11231.3711 XXZZ=         -10343.2486 YYZZ=          -4441.5834
 XXYZ=            327.6148 YYXZ=           -205.2351 ZZXY=           -182.2298
 N-N= 1.198154349486D+04 E-N=-3.073848119620D+04  KE= 2.833768042693D+03
 Unable to Open any file for archive entry.
 1\1\GINC-CLUSTER\FOpt\RPBE1PBE TD-FC\GenECP\C61H62N8Pd1\xxxxxx\20-Jan-
 2026\0\\# opt td=(triplets,nstates=5) PBE1PBE/genecp scrf=(solvent=tol
 uene) em=gd3bj\\s1 opt\\0,1\Pd,-0.2143715628,0.6007890522,-0.497234159
 3\N,-0.0185200922,-2.3574376877,-1.7719307712\N,1.6909487403,-1.076830
 0019,-1.8924677443\N,1.2015503926,3.096558377,-0.0448359628\N,-0.61067
 32792,3.3895122146,1.0590506016\N,-2.1802568362,0.0941235547,0.1612852
 7\N,4.2018525554,0.4487257137,1.4730179555\N,6.2109025813,-0.108663837
 4,0.3513074183\N,4.5151987969,-1.7473985853,0.6048113948\C,-4.79953657
 39,-1.9547169191,-3.1472058213\H,-4.7797986895,-0.8839395084,-2.924859
 597\H,-5.8164264472,-2.3135953472,-2.9642523248\H,-4.5864754065,-2.081
 7909295,-4.2137117686\C,-3.785958061,-2.6972821038,-2.2897935565\H,-3.
 8376122815,-3.774297393,-2.4947342586\H,-4.0412809673,-2.5705053975,-1
 .2317578924\C,-2.3661079705,-2.2009674566,-2.5206159437\H,-2.325316359
 7,-1.1177450938,-2.3679017939\H,-2.0615096594,-2.3888153186,-3.5574893
 16\C,-1.3724038745,-2.8549654709,-1.5759835505\H,-1.65434999,-2.673978
 9525,-0.5388945815\H,-1.3415247997,-3.9370861789,-1.7255635138\C,0.996
 9688695,-3.0844192562,-2.3658592417\H,0.8592894769,-4.106084091,-2.677
 78761\C,2.0816776343,-2.2761101867,-2.4366723627\H,3.0763292672,-2.458
 3538037,-2.8060824202\C,0.3929885315,-1.1154103025,-1.4621636237\C,2.3
 820182833,0.1418959372,-1.7218825062\C,1.5820193836,1.0824072193,-1.09
 93654597\C,2.1162458108,2.3215890787,-0.7956649033\C,3.4130427636,2.66
 27418623,-1.1528035555\H,3.8439445631,3.6254048623,-0.9030461413\C,4.1
 83083325,1.701108249,-1.8060950826\H,5.208047786,1.9371885804,-2.06618
 60201\C,3.6903546793,0.4275026077,-2.0874368164\H,4.3287579299,-0.3122
 694121,-2.5571535315\C,-0.0088047702,2.5191252947,0.2288528462\C,1.345
 1311526,4.298512316,0.6077625398\H,2.23569371,4.9003338817,0.539630585
 9\C,0.1960988048,4.4882850672,1.3007271168\H,-0.1127178309,5.297802533
 2,1.9408498736\C,-1.9354884469,3.1979212087,1.628275454\H,-1.861265319
 ,3.3176249042,2.7135419919\H,-2.2098992214,2.1633494138,1.4231501392\C
 ,-2.9662342399,4.1511981771,1.0484069214\H,-2.7120118414,5.1832096118,
 1.320634985\H,-2.9272641525,4.0906579253,-0.0445539737\C,-4.3721614801
 ,3.8185050835,1.5268624476\H,-4.6395348629,2.8164935783,1.1714381271\H
 ,-4.3863077016,3.7750823799,2.6232199424\C,-5.3997862672,4.8278388163,
 1.0406198405\H,-6.4072491111,4.5631242553,1.3725220549\H,-5.4115785507
 ,4.8748127025,-0.0522271401\H,-5.1773548112,5.8318096341,1.4164015773\
 C,-3.4055174444,1.6256391266,-1.3798019059\H,-2.5061064291,2.093300997
 5,-1.7671913374\C,-4.6626226432,1.9741669073,-1.8426137736\H,-4.735870
 2171,2.7413889237,-2.6057961163\C,-5.841688651,1.3537967176,-1.3776431
 926\C,-5.7349254045,0.3610425151,-0.4013623864\H,-6.6191346394,-0.1453
 646055,-0.0334886895\C,-4.4847684386,-0.0015261667,0.0837697718\C,-3.3
 145341852,0.630527079,-0.4053613389\C,-2.599815593,-0.8774934114,1.028
 5798616\C,-4.014301399,-1.0201030551,0.9980175671\C,-4.6321033489,-2.0
 915274362,1.6129709317\H,-5.7086558335,-2.2078135808,1.5545826822\C,-3
 .8391279658,-3.0789335023,2.2579045331\C,-2.462888104,-2.9215043139,2.
 2974322393\H,-1.8543260135,-3.6480349631,2.820921055\C,-1.79046138,-1.
 8008749736,1.7504328336\C,-7.1819556956,1.7475941292,-1.9930888905\C,-
 8.3519163001,0.991686454,-1.3642618292\H,-8.2641957757,-0.0884550054,-
 1.5142064262\H,-9.2867738286,1.3153455823,-1.8301986886\H,-8.429789207
 9,1.1873466317,-0.2905794604\C,-7.4243556259,3.2500025668,-1.800079803
 4\H,-7.46967933,3.5022974063,-0.7375149655\H,-8.3735171674,3.539149976
 7,-2.2623858309\H,-6.6340064411,3.85173072,-2.2559484901\C,-7.15315876
 75,1.4255605951,-3.4947932107\H,-6.3613040505,1.9748365121,-4.01032909
 78\H,-8.1078683163,1.6975008855,-3.9564251069\H,-6.9835814244,0.357702
 379,-3.659391992\C,-4.5396230374,-4.2786586618,2.8843983344\C,-3.56198
 42503,-5.2521936729,3.5403590411\H,-2.8468161818,-5.655807849,2.817644
 3549\H,-4.1168228282,-6.0937098468,3.9645239565\H,-3.0024913891,-4.779
 163526,4.3523835218\C,-5.3067854162,-5.0327602161,1.7872551466\H,-6.06
 22489507,-4.402549351,1.3113666964\H,-5.8155937441,-5.9021917093,2.215
 4352527\H,-4.6226639855,-5.3843189898,1.0092910275\C,-5.5255746135,-3.
 7878180833,3.9540758082\H,-4.9991766746,-3.2479910908,4.7463159593\H,-
 6.0444907324,-4.639496036,4.4052014061\H,-6.2808966042,-3.1184667115,3
 .5346729837\C,-0.367272903,-1.6257536632,1.8547704611\C,0.5411379473,-
 2.6859441383,1.60032021\H,0.1515884,-3.6869106409,1.4377089384\C,1.880
 4157097,-2.4442659189,1.4347052553\H,2.5545102862,-3.241452744,1.14588
 99708\C,2.4139710905,-1.1342333875,1.5965194337\C,1.5338349287,-0.1130
 906411,2.0308492131\H,1.9418622017,0.8702622348,2.2274112823\C,0.18273
 31434,-0.3397622418,2.1042638927\H,-0.4832454539,0.4600674362,2.411072
 3897\C,3.7609532712,-0.8125607486,1.2379038076\C,5.6988961277,-1.34197
 2952,0.1845439627\C,5.3998209702,0.7400186642,1.0120913672\C,6.5213843
 513,-2.3146113099,-0.571349899\C,6.0416587955,-3.6023889384,-0.8248002
 24\H,5.0645451613,-3.8713283522,-0.4411848162\C,6.8045808485,-4.505719
 4401,-1.5496963627\H,6.4241041498,-5.5042965953,-1.739199677\C,8.05765
 42923,-4.1355489605,-2.0314655068\H,8.6544327816,-4.8431165065,-2.5978
 208478\C,8.5413694601,-2.8559871686,-1.7818953769\H,9.5180946768,-2.56
 3266697,-2.1533381799\C,7.7787480528,-1.9499785132,-1.0567379681\H,8.1
 384098135,-0.9488737232,-0.8523980989\C,5.8736559333,2.1299288077,1.19
 6496246\C,7.0967820981,2.5394154916,0.6644699775\H,7.7044714423,1.8069
 527921,0.1468993541\C,7.5122339423,3.858997723,0.792835493\H,8.4640031
 874,4.1681405581,0.3730391579\C,6.7133693249,4.7825722297,1.4575906498
 \H,7.0393967124,5.81269742,1.5583592962\C,5.4949005446,4.3773826716,1.
 9985229198\H,4.8710403012,5.0920138018,2.5263388971\C,5.077835151,3.06
 14949268,1.8683974514\H,4.1296667089,2.728371318,2.2735467592\\Version
 =ES64L-G16RevC.02\State=1-A\HF=-2925.4104268\RMSD=2.646e-09\RMSF=2.019
 e-06\Dipole=-3.9972922,0.917147,-1.1361002\PG=C01 [X(C61H62N8Pd1)]\\@
 The archive entry for this job was punched.


 SCIENCE AND PEACE WILL TRIUMPH OVER IGNORANCE AND WAR

                          -- PASTEUR
 Job cpu time:      59 days  3 hours  4 minutes 22.5 seconds.
 Elapsed time:       0 days 16 hours 10 minutes 14.6 seconds.
 File lengths (MBytes):  RWF=  13601 Int=      0 D2E=      0 Chk=    687 Scr=      1
 Normal termination of Gaussian 16 at Tue Jan 20 11:21:19 2026.
