 Entering Gaussian System, Link 0=g16
 Initial command:
 /public/software/g16/l1.exe "/tmp/Gau-24632.inp" -scrdir="/tmp/"
 Entering Link 1 = /public/software/g16/l1.exe PID=     24633.
  
 Copyright (c) 1988-2021, Gaussian, Inc.  All Rights Reserved.
  
 This is part of the Gaussian(R) 16 program.  It is based on
 the Gaussian(R) 09 system (copyright 2009, Gaussian, Inc.),
 the Gaussian(R) 03 system (copyright 2003, Gaussian, Inc.),
 the Gaussian(R) 98 system (copyright 1998, Gaussian, Inc.),
 the Gaussian(R) 94 system (copyright 1995, Gaussian, Inc.),
 the Gaussian 92(TM) system (copyright 1992, Gaussian, Inc.),
 the Gaussian 90(TM) system (copyright 1990, Gaussian, Inc.),
 the Gaussian 88(TM) system (copyright 1988, Gaussian, Inc.),
 the Gaussian 86(TM) system (copyright 1986, Carnegie Mellon
 University), and the Gaussian 82(TM) system (copyright 1983,
 Carnegie Mellon University). Gaussian is a federally registered
 trademark of Gaussian, Inc.
  
 This software contains proprietary and confidential information,
 including trade secrets, belonging to Gaussian, Inc.
  
 This software is provided under written license and may be
 used, copied, transmitted, or stored only in accord with that
 written license.
  
 The following legend is applicable only to US Government
 contracts under FAR:
  
                    RESTRICTED RIGHTS LEGEND
  
 Use, reproduction and disclosure by the US Government is
 subject to restrictions as set forth in subparagraphs (a)
 and (c) of the Commercial Computer Software - Restricted
 Rights clause in FAR 52.227-19.
  
 Gaussian, Inc.
 340 Quinnipiac St., Bldg. 40, Wallingford CT 06492
  
  
 ---------------------------------------------------------------
 Warning -- This program may not be used in any manner that
 competes with the business of Gaussian, Inc. or will provide
 assistance to any competitor of Gaussian, Inc.  The licensee
 of this program is prohibited from giving any competitor of
 Gaussian, Inc. access to this program.  By using this program,
 the user acknowledges that Gaussian, Inc. is engaged in the
 business of creating and licensing software in the field of
 computational chemistry and represents and warrants to the
 licensee that it is not a competitor of Gaussian, Inc. and that
 it will not use this program in any manner prohibited above.
 ---------------------------------------------------------------
  

 Cite this work as:
 Gaussian 16, Revision C.02,
 M. J. Frisch, G. W. Trucks, H. B. Schlegel, G. E. Scuseria, 
 M. A. Robb, J. R. Cheeseman, G. Scalmani, V. Barone, 
 G. A. Petersson, H. Nakatsuji, X. Li, M. Caricato, A. V. Marenich, 
 J. Bloino, B. G. Janesko, R. Gomperts, B. Mennucci, H. P. Hratchian, 
 J. V. Ortiz, A. F. Izmaylov, J. L. Sonnenberg, D. Williams-Young, 
 F. Ding, F. Lipparini, F. Egidi, J. Goings, B. Peng, A. Petrone, 
 T. Henderson, D. Ranasinghe, V. G. Zakrzewski, J. Gao, N. Rega, 
 G. Zheng, W. Liang, M. Hada, M. Ehara, K. Toyota, R. Fukuda, 
 J. Hasegawa, M. Ishida, T. Nakajima, Y. Honda, O. Kitao, H. Nakai, 
 T. Vreven, K. Throssell, J. A. Montgomery, Jr., J. E. Peralta, 
 F. Ogliaro, M. J. Bearpark, J. J. Heyd, E. N. Brothers, K. N. Kudin, 
 V. N. Staroverov, T. A. Keith, R. Kobayashi, J. Normand, 
 K. Raghavachari, A. P. Rendell, J. C. Burant, S. S. Iyengar, 
 J. Tomasi, M. Cossi, J. M. Millam, M. Klene, C. Adamo, R. Cammi, 
 J. W. Ochterski, R. L. Martin, K. Morokuma, O. Farkas, 
 J. B. Foresman, and D. J. Fox, Gaussian, Inc., Wallingford CT, 2019.
 
 ******************************************
 Gaussian 16:  ES64L-G16RevC.02  7-Dec-2021
                21-Nov-2025 
 ******************************************
 %nprocshared=96
 Will use up to   96 processors via shared memory.
 %mem=50GB
 %chk=IM1.chk
 -------------------------
 # opt freq 6-31g(d) m062x
 -------------------------
 1/18=20,19=15,26=3,38=1/1,3;
 2/9=110,12=2,17=6,18=5,40=1/2;
 3/5=1,6=6,7=1,11=2,25=1,30=1,71=1,74=-55/1,2,3;
 4//1;
 5/5=2,38=5/2;
 6/7=2,8=2,9=2,10=2,28=1/1;
 7//1,2,3,16;
 1/18=20,19=15,26=3/3(2);
 2/9=110/2;
 99//99;
 2/9=110/2;
 3/5=1,6=6,7=1,11=2,25=1,30=1,71=1,74=-55/1,2,3;
 4/5=5,16=3,69=1/1;
 5/5=2,38=5/2;
 7//1,2,3,16;
 1/18=20,19=15,26=3/3(-5);
 2/9=110/2;
 6/7=2,8=2,9=2,10=2,19=2,28=1/1;
 99/9=1/99;
 -------------------
 Title Card Required
 -------------------
 Symbolic Z-matrix:
 Charge =  0 Multiplicity = 2
 C                    -3.0421    2.54288  -0.44434 
 C                    -2.47707   1.27529  -0.24657 
 C                    -3.28551   0.19539   0.16261 
 C                    -4.6584    0.3289    0.39393 
 C                    -5.19493   1.58957   0.19347 
 C                    -4.40015   2.6815   -0.22024 
 H                    -2.42499   3.37712  -0.76069 
 H                    -5.27148  -0.50528   0.71773 
 H                    -6.25577   1.74439   0.36099 
 H                    -4.87037   3.64887  -0.36237 
 N                    -2.43721  -0.88977   0.25344 
 N                    -1.16408   0.85805  -0.39094 
 C                    -1.20878  -0.40783  -0.0813 
 C                    -2.78868  -2.23773   0.68026 
 H                    -2.10757  -2.95153   0.21667 
 H                    -2.73335  -2.32194   1.76723 
 H                    -3.80262  -2.4529    0.34188 
 S                     0.2341   -1.45789  -0.07148 
 O                     0.08658  -2.44505  -1.14644 
 O                     0.40468  -1.95655   1.29694 
 C                     1.56374  -0.33191  -0.47433 
 C                     2.88787  -1.12098  -0.52142 
 H                     1.56822   0.43827   0.30084 
 H                     1.31672   0.12175  -1.43675 
 C                     4.02587  -0.20416  -0.82839 
 H                     3.0371   -1.60162   0.45354 
 H                     2.80159  -1.90761  -1.27709 
 C                     4.55015   0.7462    0.1956 
 H                     4.27438  -0.02754  -1.87166 
 H                     3.93413   1.66339   0.22787 
 H                     4.4608    0.2972    1.19552 
 C                     6.00448   1.15582  -0.05758 
 C                     6.51656   2.14929   0.98121 
 H                     6.08136   1.59292  -1.06096 
 H                     6.63271   0.25729  -0.06043 
 H                     7.55488   2.43202   0.78624 
 H                     5.91176   3.06237   0.97821 
 H                     6.46739   1.72052   1.98778 
 

 GradGradGradGradGradGradGradGradGradGradGradGradGradGradGradGradGradGrad
 Berny optimization.
 Initialization pass.
                           ----------------------------
                           !    Initial Parameters    !
                           ! (Angstroms and Degrees)  !
 --------------------------                            --------------------------
 ! Name  Definition              Value          Derivative Info.                !
 --------------------------------------------------------------------------------
 ! R1    R(1,2)                  1.4018         estimate D2E/DX2                !
 ! R2    R(1,6)                  1.3834         estimate D2E/DX2                !
 ! R3    R(1,7)                  1.0848         estimate D2E/DX2                !
 ! R4    R(2,3)                  1.4097         estimate D2E/DX2                !
 ! R5    R(2,12)                 1.3852         estimate D2E/DX2                !
 ! R6    R(3,4)                  1.3986         estimate D2E/DX2                !
 ! R7    R(3,11)                 1.3804         estimate D2E/DX2                !
 ! R8    R(4,5)                  1.3847         estimate D2E/DX2                !
 ! R9    R(4,8)                  1.0847         estimate D2E/DX2                !
 ! R10   R(5,6)                  1.4125         estimate D2E/DX2                !
 ! R11   R(5,9)                  1.0851         estimate D2E/DX2                !
 ! R12   R(6,10)                 1.0849         estimate D2E/DX2                !
 ! R13   R(11,13)                1.3614         estimate D2E/DX2                !
 ! R14   R(11,14)                1.4569         estimate D2E/DX2                !
 ! R15   R(12,13)                1.304          estimate D2E/DX2                !
 ! R16   R(13,18)                1.7845         estimate D2E/DX2                !
 ! R17   R(14,15)                1.0901         estimate D2E/DX2                !
 ! R18   R(14,16)                1.0916         estimate D2E/DX2                !
 ! R19   R(14,17)                1.0904         estimate D2E/DX2                !
 ! R20   R(18,19)                1.4669         estimate D2E/DX2                !
 ! R21   R(18,20)                1.4664         estimate D2E/DX2                !
 ! R22   R(18,21)                1.7883         estimate D2E/DX2                !
 ! R23   R(21,22)                1.5421         estimate D2E/DX2                !
 ! R24   R(21,23)                1.0927         estimate D2E/DX2                !
 ! R25   R(21,24)                1.0923         estimate D2E/DX2                !
 ! R26   R(22,25)                1.4933         estimate D2E/DX2                !
 ! R27   R(22,26)                1.0972         estimate D2E/DX2                !
 ! R28   R(22,27)                1.0942         estimate D2E/DX2                !
 ! R29   R(25,28)                1.4922         estimate D2E/DX2                !
 ! R30   R(25,29)                1.0869         estimate D2E/DX2                !
 ! R31   R(28,30)                1.1053         estimate D2E/DX2                !
 ! R32   R(28,31)                1.0997         estimate D2E/DX2                !
 ! R33   R(28,32)                1.532          estimate D2E/DX2                !
 ! R34   R(32,33)                1.5259         estimate D2E/DX2                !
 ! R35   R(32,34)                1.0972         estimate D2E/DX2                !
 ! R36   R(32,35)                1.0964         estimate D2E/DX2                !
 ! R37   R(33,36)                1.0936         estimate D2E/DX2                !
 ! R38   R(33,37)                1.0952         estimate D2E/DX2                !
 ! R39   R(33,38)                1.0952         estimate D2E/DX2                !
 ! A1    A(2,1,6)              117.6087         estimate D2E/DX2                !
 ! A2    A(2,1,7)              120.4786         estimate D2E/DX2                !
 ! A3    A(6,1,7)              121.9126         estimate D2E/DX2                !
 ! A4    A(1,2,3)              120.1654         estimate D2E/DX2                !
 ! A5    A(1,2,12)             129.7693         estimate D2E/DX2                !
 ! A6    A(3,2,12)             110.0652         estimate D2E/DX2                !
 ! A7    A(2,3,4)              122.5353         estimate D2E/DX2                !
 ! A8    A(2,3,11)             105.5984         estimate D2E/DX2                !
 ! A9    A(4,3,11)             131.8662         estimate D2E/DX2                !
 ! A10   A(3,4,5)              116.315          estimate D2E/DX2                !
 ! A11   A(3,4,8)              122.057          estimate D2E/DX2                !
 ! A12   A(5,4,8)              121.6272         estimate D2E/DX2                !
 ! A13   A(4,5,6)              121.8839         estimate D2E/DX2                !
 ! A14   A(4,5,9)              119.1015         estimate D2E/DX2                !
 ! A15   A(6,5,9)              119.0144         estimate D2E/DX2                !
 ! A16   A(1,6,5)              121.4909         estimate D2E/DX2                !
 ! A17   A(1,6,10)             119.577          estimate D2E/DX2                !
 ! A18   A(5,6,10)             118.932          estimate D2E/DX2                !
 ! A19   A(3,11,13)            105.073          estimate D2E/DX2                !
 ! A20   A(3,11,14)            126.7519         estimate D2E/DX2                !
 ! A21   A(13,11,14)           128.1148         estimate D2E/DX2                !
 ! A22   A(2,12,13)            103.6019         estimate D2E/DX2                !
 ! A23   A(11,13,12)           115.6572         estimate D2E/DX2                !
 ! A24   A(11,13,18)           121.327          estimate D2E/DX2                !
 ! A25   A(12,13,18)           123.0126         estimate D2E/DX2                !
 ! A26   A(11,14,15)           109.2991         estimate D2E/DX2                !
 ! A27   A(11,14,16)           110.5391         estimate D2E/DX2                !
 ! A28   A(11,14,17)           108.421          estimate D2E/DX2                !
 ! A29   A(15,14,16)           109.9543         estimate D2E/DX2                !
 ! A30   A(15,14,17)           108.6524         estimate D2E/DX2                !
 ! A31   A(16,14,17)           109.9334         estimate D2E/DX2                !
 ! A32   A(13,18,19)           108.0975         estimate D2E/DX2                !
 ! A33   A(13,18,20)           107.4146         estimate D2E/DX2                !
 ! A34   A(13,18,21)           103.2639         estimate D2E/DX2                !
 ! A35   A(19,18,20)           117.8203         estimate D2E/DX2                !
 ! A36   A(19,18,21)           109.4759         estimate D2E/DX2                !
 ! A37   A(20,18,21)           109.7452         estimate D2E/DX2                !
 ! A38   A(18,21,22)           108.8518         estimate D2E/DX2                !
 ! A39   A(18,21,23)           106.6795         estimate D2E/DX2                !
 ! A40   A(18,21,24)           106.9682         estimate D2E/DX2                !
 ! A41   A(22,21,23)           112.2582         estimate D2E/DX2                !
 ! A42   A(22,21,24)           112.3206         estimate D2E/DX2                !
 ! A43   A(23,21,24)           109.4658         estimate D2E/DX2                !
 ! A44   A(21,22,25)           110.2723         estimate D2E/DX2                !
 ! A45   A(21,22,26)           108.288          estimate D2E/DX2                !
 ! A46   A(21,22,27)           108.7374         estimate D2E/DX2                !
 ! A47   A(25,22,26)           110.3631         estimate D2E/DX2                !
 ! A48   A(25,22,27)           111.0707         estimate D2E/DX2                !
 ! A49   A(26,22,27)           108.0277         estimate D2E/DX2                !
 ! A50   A(22,25,28)           121.1801         estimate D2E/DX2                !
 ! A51   A(22,25,29)           118.1204         estimate D2E/DX2                !
 ! A52   A(28,25,29)           118.3501         estimate D2E/DX2                !
 ! A53   A(25,28,30)           110.6527         estimate D2E/DX2                !
 ! A54   A(25,28,31)           109.5952         estimate D2E/DX2                !
 ! A55   A(25,28,32)           112.9813         estimate D2E/DX2                !
 ! A56   A(30,28,31)           105.4833         estimate D2E/DX2                !
 ! A57   A(30,28,32)           108.1809         estimate D2E/DX2                !
 ! A58   A(31,28,32)           109.6677         estimate D2E/DX2                !
 ! A59   A(28,32,33)           112.3444         estimate D2E/DX2                !
 ! A60   A(28,32,34)           108.9163         estimate D2E/DX2                !
 ! A61   A(28,32,35)           108.9811         estimate D2E/DX2                !
 ! A62   A(33,32,34)           109.8584         estimate D2E/DX2                !
 ! A63   A(33,32,35)           110.0631         estimate D2E/DX2                !
 ! A64   A(34,32,35)           106.4975         estimate D2E/DX2                !
 ! A65   A(32,33,36)           111.443          estimate D2E/DX2                !
 ! A66   A(32,33,37)           110.8305         estimate D2E/DX2                !
 ! A67   A(32,33,38)           110.8381         estimate D2E/DX2                !
 ! A68   A(36,33,37)           107.9549         estimate D2E/DX2                !
 ! A69   A(36,33,38)           107.9203         estimate D2E/DX2                !
 ! A70   A(37,33,38)           107.7051         estimate D2E/DX2                !
 ! D1    D(6,1,2,3)              0.1721         estimate D2E/DX2                !
 ! D2    D(6,1,2,12)          -179.7853         estimate D2E/DX2                !
 ! D3    D(7,1,2,3)           -179.9042         estimate D2E/DX2                !
 ! D4    D(7,1,2,12)             0.1385         estimate D2E/DX2                !
 ! D5    D(2,1,6,5)              0.0182         estimate D2E/DX2                !
 ! D6    D(2,1,6,10)           179.9185         estimate D2E/DX2                !
 ! D7    D(7,1,6,5)           -179.9044         estimate D2E/DX2                !
 ! D8    D(7,1,6,10)            -0.0041         estimate D2E/DX2                !
 ! D9    D(1,2,3,4)             -0.329          estimate D2E/DX2                !
 ! D10   D(1,2,3,11)           179.5693         estimate D2E/DX2                !
 ! D11   D(12,2,3,4)           179.6361         estimate D2E/DX2                !
 ! D12   D(12,2,3,11)           -0.4656         estimate D2E/DX2                !
 ! D13   D(1,2,12,13)         -179.9546         estimate D2E/DX2                !
 ! D14   D(3,2,12,13)            0.0846         estimate D2E/DX2                !
 ! D15   D(2,3,4,5)              0.2711         estimate D2E/DX2                !
 ! D16   D(2,3,4,8)           -179.409          estimate D2E/DX2                !
 ! D17   D(11,3,4,5)          -179.5974         estimate D2E/DX2                !
 ! D18   D(11,3,4,8)             0.7225         estimate D2E/DX2                !
 ! D19   D(2,3,11,13)            0.6354         estimate D2E/DX2                !
 ! D20   D(2,3,11,14)          177.9833         estimate D2E/DX2                !
 ! D21   D(4,3,11,13)         -179.4798         estimate D2E/DX2                !
 ! D22   D(4,3,11,14)           -2.1318         estimate D2E/DX2                !
 ! D23   D(3,4,5,6)             -0.0742         estimate D2E/DX2                !
 ! D24   D(3,4,5,9)           -179.9304         estimate D2E/DX2                !
 ! D25   D(8,4,5,6)            179.6074         estimate D2E/DX2                !
 ! D26   D(8,4,5,9)             -0.2489         estimate D2E/DX2                !
 ! D27   D(4,5,6,1)             -0.0681         estimate D2E/DX2                !
 ! D28   D(4,5,6,10)          -179.969          estimate D2E/DX2                !
 ! D29   D(9,5,6,1)            179.7883         estimate D2E/DX2                !
 ! D30   D(9,5,6,10)            -0.1127         estimate D2E/DX2                !
 ! D31   D(3,11,13,12)          -0.6551         estimate D2E/DX2                !
 ! D32   D(3,11,13,18)         178.7008         estimate D2E/DX2                !
 ! D33   D(14,11,13,12)       -177.9542         estimate D2E/DX2                !
 ! D34   D(14,11,13,18)          1.4017         estimate D2E/DX2                !
 ! D35   D(3,11,14,15)         152.8674         estimate D2E/DX2                !
 ! D36   D(3,11,14,16)         -85.9791         estimate D2E/DX2                !
 ! D37   D(3,11,14,17)          34.5861         estimate D2E/DX2                !
 ! D38   D(13,11,14,15)        -30.388          estimate D2E/DX2                !
 ! D39   D(13,11,14,16)         90.7655         estimate D2E/DX2                !
 ! D40   D(13,11,14,17)       -148.6693         estimate D2E/DX2                !
 ! D41   D(2,12,13,11)           0.3577         estimate D2E/DX2                !
 ! D42   D(2,12,13,18)        -178.9862         estimate D2E/DX2                !
 ! D43   D(11,13,18,19)         67.5321         estimate D2E/DX2                !
 ! D44   D(11,13,18,20)        -60.5712         estimate D2E/DX2                !
 ! D45   D(11,13,18,21)       -176.529          estimate D2E/DX2                !
 ! D46   D(12,13,18,19)       -113.1602         estimate D2E/DX2                !
 ! D47   D(12,13,18,20)        118.7364         estimate D2E/DX2                !
 ! D48   D(12,13,18,21)          2.7786         estimate D2E/DX2                !
 ! D49   D(13,18,21,22)       -179.1691         estimate D2E/DX2                !
 ! D50   D(13,18,21,23)         59.4896         estimate D2E/DX2                !
 ! D51   D(13,18,21,24)        -57.5841         estimate D2E/DX2                !
 ! D52   D(19,18,21,22)        -64.2157         estimate D2E/DX2                !
 ! D53   D(19,18,21,23)        174.443          estimate D2E/DX2                !
 ! D54   D(19,18,21,24)         57.3693         estimate D2E/DX2                !
 ! D55   D(20,18,21,22)         66.5439         estimate D2E/DX2                !
 ! D56   D(20,18,21,23)        -54.7973         estimate D2E/DX2                !
 ! D57   D(20,18,21,24)       -171.8711         estimate D2E/DX2                !
 ! D58   D(18,21,22,25)       -178.8401         estimate D2E/DX2                !
 ! D59   D(18,21,22,26)        -57.9931         estimate D2E/DX2                !
 ! D60   D(18,21,22,27)         59.1545         estimate D2E/DX2                !
 ! D61   D(23,21,22,25)        -60.9713         estimate D2E/DX2                !
 ! D62   D(23,21,22,26)         59.8757         estimate D2E/DX2                !
 ! D63   D(23,21,22,27)        177.0233         estimate D2E/DX2                !
 ! D64   D(24,21,22,25)         62.8957         estimate D2E/DX2                !
 ! D65   D(24,21,22,26)       -176.2573         estimate D2E/DX2                !
 ! D66   D(24,21,22,27)        -59.1097         estimate D2E/DX2                !
 ! D67   D(21,22,25,28)         73.7528         estimate D2E/DX2                !
 ! D68   D(21,22,25,29)        -88.5577         estimate D2E/DX2                !
 ! D69   D(26,22,25,28)        -45.8449         estimate D2E/DX2                !
 ! D70   D(26,22,25,29)        151.8446         estimate D2E/DX2                !
 ! D71   D(27,22,25,28)       -165.6308         estimate D2E/DX2                !
 ! D72   D(27,22,25,29)         32.0588         estimate D2E/DX2                !
 ! D73   D(22,25,28,30)        -82.5453         estimate D2E/DX2                !
 ! D74   D(22,25,28,31)         33.3681         estimate D2E/DX2                !
 ! D75   D(22,25,28,32)        155.9853         estimate D2E/DX2                !
 ! D76   D(29,25,28,30)         79.7258         estimate D2E/DX2                !
 ! D77   D(29,25,28,31)       -164.3609         estimate D2E/DX2                !
 ! D78   D(29,25,28,32)        -41.7436         estimate D2E/DX2                !
 ! D79   D(25,28,32,33)        178.8293         estimate D2E/DX2                !
 ! D80   D(25,28,32,34)         56.8846         estimate D2E/DX2                !
 ! D81   D(25,28,32,35)        -58.921          estimate D2E/DX2                !
 ! D82   D(30,28,32,33)         55.9742         estimate D2E/DX2                !
 ! D83   D(30,28,32,34)        -65.9705         estimate D2E/DX2                !
 ! D84   D(30,28,32,35)        178.2238         estimate D2E/DX2                !
 ! D85   D(31,28,32,33)        -58.5938         estimate D2E/DX2                !
 ! D86   D(31,28,32,34)        179.4615         estimate D2E/DX2                !
 ! D87   D(31,28,32,35)         63.6558         estimate D2E/DX2                !
 ! D88   D(28,32,33,36)       -179.9582         estimate D2E/DX2                !
 ! D89   D(28,32,33,37)        -59.7071         estimate D2E/DX2                !
 ! D90   D(28,32,33,38)         59.8293         estimate D2E/DX2                !
 ! D91   D(34,32,33,36)        -58.5508         estimate D2E/DX2                !
 ! D92   D(34,32,33,37)         61.7003         estimate D2E/DX2                !
 ! D93   D(34,32,33,38)       -178.7632         estimate D2E/DX2                !
 ! D94   D(35,32,33,36)         58.4075         estimate D2E/DX2                !
 ! D95   D(35,32,33,37)        178.6585         estimate D2E/DX2                !
 ! D96   D(35,32,33,38)        -61.805          estimate D2E/DX2                !
 --------------------------------------------------------------------------------
 Trust Radius=3.00D-01 FncErr=1.00D-07 GrdErr=1.00D-06 EigMax=2.50D+02 EigMin=1.00D-04
 Number of steps in this run=    215 maximum allowed number of steps=    228.
 GradGradGradGradGradGradGradGradGradGradGradGradGradGradGradGradGradGrad

                          Input orientation:                          
 ---------------------------------------------------------------------
 Center     Atomic      Atomic             Coordinates (Angstroms)
 Number     Number       Type             X           Y           Z
 ---------------------------------------------------------------------
      1          6           0       -3.042096    2.542883   -0.444344
      2          6           0       -2.477069    1.275292   -0.246568
      3          6           0       -3.285509    0.195390    0.162607
      4          6           0       -4.658404    0.328903    0.393934
      5          6           0       -5.194926    1.589574    0.193469
      6          6           0       -4.400148    2.681500   -0.220236
      7          1           0       -2.424988    3.377117   -0.760685
      8          1           0       -5.271483   -0.505283    0.717732
      9          1           0       -6.255769    1.744388    0.360990
     10          1           0       -4.870374    3.648867   -0.362368
     11          7           0       -2.437207   -0.889774    0.253441
     12          7           0       -1.164081    0.858047   -0.390942
     13          6           0       -1.208775   -0.407832   -0.081295
     14          6           0       -2.788680   -2.237728    0.680259
     15          1           0       -2.107568   -2.951528    0.216668
     16          1           0       -2.733346   -2.321938    1.767228
     17          1           0       -3.802617   -2.452900    0.341881
     18         16           0        0.234101   -1.457888   -0.071476
     19          8           0        0.086579   -2.445054   -1.146443
     20          8           0        0.404681   -1.956550    1.296942
     21          6           0        1.563741   -0.331907   -0.474326
     22          6           0        2.887872   -1.120980   -0.521421
     23          1           0        1.568218    0.438269    0.300844
     24          1           0        1.316718    0.121747   -1.436747
     25          6           0        4.025871   -0.204164   -0.828385
     26          1           0        3.037104   -1.601618    0.453543
     27          1           0        2.801587   -1.907613   -1.277091
     28          6           0        4.550154    0.746195    0.195601
     29          1           0        4.274379   -0.027542   -1.871660
     30          1           0        3.934129    1.663392    0.227868
     31          1           0        4.460799    0.297199    1.195520
     32          6           0        6.004476    1.155824   -0.057579
     33          6           0        6.516565    2.149290    0.981213
     34          1           0        6.081359    1.592924   -1.060965
     35          1           0        6.632708    0.257292   -0.060426
     36          1           0        7.554879    2.432022    0.786241
     37          1           0        5.911758    3.062370    0.978209
     38          1           0        6.467390    1.720523    1.987776
 ---------------------------------------------------------------------
                    Distance matrix (angstroms):
                    1          2          3          4          5
     1  C    0.000000
     2  C    1.401841   0.000000
     3  C    2.436876   1.409676   0.000000
     4  C    2.866508   2.462543   1.398635   0.000000
     5  C    2.439320   2.771128   2.364440   1.384678   0.000000
     6  C    1.383381   2.382509   2.751315   2.445120   1.412489
     7  H    1.084823   2.164416   3.422916   3.951316   3.431949
     8  H    3.951190   3.450952   2.177889   1.084701   2.160819
     9  H    3.407910   3.855872   3.355770   2.134539   1.085089
    10  H    2.138345   3.372711   3.835870   3.411610   2.157539
    11  N    3.554705   2.222411   1.380380   2.537445   3.708878
    12  N    2.523582   1.385235   2.290412   3.620265   4.138161
    13  C    3.492791   2.113952   2.176279   3.559292   4.467049
    14  C    4.917641   3.646563   2.536704   3.188329   4.547002
    15  H    5.612382   4.268153   3.360589   4.159257   5.491259
    16  H    5.352837   4.130510   3.035891   3.552287   4.882215
    17  H    5.114136   4.000346   2.704252   2.910929   4.278101
    18  S    5.184464   3.853748   3.895610   5.229324   6.231497
    19  O    5.929677   4.606847   4.478452   5.708105   6.779962
    20  O    5.929355   4.596924   4.419849   5.627926   6.719244
    21  C    5.429461   4.354665   4.919243   6.317091   7.058160
    22  C    6.970965   5.882198   6.349123   7.738625   8.555103
    23  H    5.122470   4.167087   4.861766   6.228278   6.861279
    24  H    5.083898   4.140050   4.872766   6.252711   6.871217
    25  C    7.592754   6.694440   7.389045   8.786060   9.449062
    26  H    7.412136   6.258823   6.579462   7.934186   8.832761
    27  H    7.392497   6.249566   6.599098   7.965287   8.850824
    28  C    7.828146   7.060972   7.855068   9.220141   9.781507
    29  H    7.885120   7.065433   7.831976   9.222504   9.825862
    30  H    7.063504   6.440433   7.367663   8.697130   9.129418
    31  H    8.001605   7.153342   7.815533   9.154420   9.793231
    32  C    9.160458   8.484491   9.342095  10.704423  11.210610
    33  C    9.672390   9.119033  10.028385  11.337488  11.751291
    34  H    9.193480   8.602954   9.549264  10.911324  11.345846
    35  H    9.948525   9.168370   9.920917  11.300477  11.905140
    36  H   10.668763  10.151094  11.086273  12.399246  12.791350
    37  H    9.081026   8.664072   9.668221  10.933506  11.231357
    38  H    9.849965   9.230053  10.038741  11.325203  11.800267
                    6          7          8          9         10
     6  C    0.000000
     7  H    2.162689   0.000000
     8  H    3.434326   5.035998   0.000000
     9  H    2.158549   4.312637   2.481351   0.000000
    10  H    1.084948   2.492472   4.310971   2.463657   0.000000
    11  N    4.102622   4.385768   2.897675   4.640236   5.186404
    12  N    3.718367   2.841181   4.467502   5.222671   4.639623
    13  C    4.443888   4.033185   4.141683   5.504527   5.472030
    14  C    5.254191   5.808190   3.027719   5.289602   6.330286
    15  H    6.097361   6.411530   4.030575   6.267378   7.178690
    16  H    5.635835   6.242168   3.292995   5.560573   6.689737
    17  H    5.199527   6.091191   2.468206   4.861640   6.234391
    18  S    6.215539   5.560849   5.642850   7.249828   7.226287
    19  O    6.875328   6.352516   5.995556   7.749139   7.894430
    20  O    6.848337   6.378782   5.887317   7.676884   7.874022
    21  C    6.686790   5.454248   6.940558   8.133480   7.566831
    22  C    8.225862   6.965386   8.275848   9.622638   9.108629
    23  H    6.397265   5.070440   6.917051   7.932486   7.225182
    24  H    6.380814   5.005483   6.959838   7.950307   7.202428
    25  C    8.927189   7.378600   9.429843  10.532027   9.705988
    26  H    8.608821   7.489766   8.384770   9.877338   9.526884
    27  H    8.604760   7.450646   8.433286   9.902329   9.516836
    28  C    9.166582   7.515906   9.914806  10.853189   9.873357
    29  H    9.236532   7.596544   9.902357  10.909101   9.970981
    30  H    8.408181   6.659764   9.470291  10.191089   9.044875
    31  H    9.284699   7.792734   9.776992  10.845996  10.036508
    32  C   10.517145   8.745534  11.423994  12.281499  11.161117
    33  C   10.995515   9.192015  12.086118  12.793793  11.563577
    34  H   10.571368   8.696635  11.681321  12.419727  11.164918
    35  H   11.297178   9.605495  11.953946  12.980828  11.996451
    36  H   11.999913  10.143172  13.158572  13.834294  12.537421
    37  H   10.388298   8.521981  11.741417  12.254254  10.880969
    38  H   11.131135   9.453715  12.015339  12.826760  11.738253
                   11         12         13         14         15
    11  N    0.000000
    12  N    2.256315   0.000000
    13  C    1.361382   1.303966   0.000000
    14  C    1.456944   3.656585   2.534676   0.000000
    15  H    2.088263   3.971425   2.714222   1.090110   0.000000
    16  H    2.104838   4.151216   3.066783   1.091629   1.786678
    17  H    2.077385   4.296658   3.330075   1.090352   1.771299
    18  S    2.750311   2.724064   1.784546   3.210991   2.792383
    19  O    3.278424   3.611843   2.638703   3.412761   2.632274
    20  O    3.209865   3.637571   2.627033   3.264493   2.910046
    21  C    4.104686   2.977240   2.801265   4.889661   4.562718
    22  C    5.386124   4.511308   4.181484   5.908841   5.371229
    23  H    4.220115   2.849603   2.928072   5.127131   5.000921
    24  H    4.239323   2.791095   2.914759   5.186823   4.889226
    25  C    6.588762   5.315567   5.291611   7.269766   6.801413
    26  H    5.524024   4.940958   4.442822   5.864793   5.324098
    27  H    5.551890   4.915349   4.445478   5.932224   5.236495
    28  C    7.176556   5.745348   5.879942   7.937076   7.615698
    29  H    7.092594   5.705580   5.780571   7.828411   7.323937
    30  H    6.863908   5.198389   5.552928   7.785856   7.602612
    31  H    7.062500   5.871174   5.854178   7.697161   7.392958
    32  C    8.691560   7.182479   7.380825   9.454110   9.096747
    33  C    9.483438   7.908378   8.206624  10.291943  10.048808
    34  H    8.969806   7.313370   7.622915   9.817502   9.452138
    35  H    9.147548   7.826881   7.869668   9.774267   9.314812
    36  H   10.543244   8.937753   9.253055  11.349318  11.075645
    37  H    9.265525   7.536651   7.991673  10.192028  10.052686
    38  H    9.439990   8.039995   8.230095  10.151462   9.924454
                   16         17         18         19         20
    16  H    0.000000
    17  H    1.786646   0.000000
    18  S    3.596270   4.178038   0.000000
    19  O    4.056675   4.164254   1.466906   0.000000
    20  O    3.194040   4.342794   1.466400   2.511962   0.000000
    21  C    5.239250   5.827744   1.788313   2.664421   2.668384
    22  C    6.186946   6.876187   2.712648   3.160865   3.189178
    23  H    5.317187   6.099706   2.348170   3.550133   2.842743
    24  H    5.713149   5.999993   2.351865   2.861116   3.553053
    25  C    7.543818   8.228703   4.064758   4.543211   4.549823
    26  H    5.961772   6.893398   2.855368   3.460771   2.786925
    27  H    6.330484   6.821577   2.871889   2.770772   3.517556
    28  C    8.058091   8.945635   4.853620   5.648775   5.069786
    29  H    8.222771   8.718944   4.648699   4.889578   5.360566
    30  H    7.918820   8.764365   4.849969   5.794109   5.167582
    31  H    7.677399   8.750759   4.748746   5.669087   4.641311
    32  C    9.579889  10.457606   6.334738   7.012378   6.548229
    33  C   10.303910  11.316997   7.320467   8.184109   7.369717
    34  H   10.051062  10.771706   6.669106   7.228413   7.098110
    35  H    9.885126  10.789022   6.624510   7.164769   6.747730
    36  H   11.375854  12.371444   8.334319   9.126699   8.405100
    37  H   10.215241  11.188932   7.332828   8.293285   7.457818
    38  H   10.052048  11.207117   7.293607   8.239545   7.124223
                   21         22         23         24         25
    21  C    0.000000
    22  C    1.542134   0.000000
    23  H    1.092740   2.202014   0.000000
    24  H    1.092280   2.202434   1.784001   0.000000
    25  C    2.490735   1.493258   2.779917   2.795681   0.000000
    26  H    2.154972   1.097195   2.518349   3.082679   2.138662
    27  H    2.158598   1.094200   3.084516   2.519648   2.145215
    28  C    3.244961   2.600701   2.999639   3.675541   1.492180
    29  H    3.064758   2.222871   3.501437   2.993191   1.086910
    30  H    3.176954   3.067379   2.665293   3.463878   2.147522
    31  H    3.402515   2.726393   3.031068   4.104249   2.129957
    32  C    4.701824   3.887442   4.508186   4.994647   2.521624
    33  C    5.727600   5.110772   5.279833   6.082423   3.875171
    34  H    4.945502   4.225487   4.853472   5.000738   2.740192
    35  H    5.119853   4.016957   5.080583   5.492939   2.756502
    36  H    6.717296   6.009556   6.328568   7.013822   4.691523
    37  H    5.704053   5.375239   5.119675   5.966043   4.182176
    38  H    5.858344   5.213747   5.337771   6.388495   4.194782
                   26         27         28         29         30
    26  H    0.000000
    27  H    1.773188   0.000000
    28  C    2.805010   3.502714   0.000000
    29  H    3.068409   2.461157   2.224475   0.000000
    30  H    3.393505   4.037280   1.105341   2.717176   0.000000
    31  H    2.486552   3.705130   1.099736   3.089952   1.755054
    32  C    4.082895   4.596776   1.531975   2.772090   2.150684
    33  C    5.143384   5.946382   2.540204   4.231416   2.733606
    34  H    4.665439   4.801809   2.154181   2.558967   2.505325
    35  H    4.080206   4.565586   2.154439   2.987209   3.056560
    36  H    6.065578   6.758961   3.495603   4.886264   3.743314
    37  H    5.503789   6.281741   2.798412   4.511133   2.535975
    38  H    5.015711   6.104166   2.799464   4.770773   3.085118
                   31         32         33         34         35
    31  H    0.000000
    32  C    2.165741   0.000000
    33  C    2.775309   1.525876   0.000000
    34  H    3.065427   1.097156   2.160888   0.000000
    35  H    2.509219   1.096377   2.162905   1.757549   0.000000
    36  H    3.781311   2.178179   1.093640   2.507492   2.509322
    37  H    3.130284   2.171721   1.095224   2.519180   3.076848
    38  H    2.584556   2.171785   1.095184   3.075731   2.522599
                   36         37         38
    36  H    0.000000
    37  H    1.770321   0.000000
    38  H    1.769901   1.768758   0.000000
 Stoichiometry    C14H19N2O2S(2)
 Framework group  C1[X(C14H19N2O2S)]
 Deg. of freedom   108
 Full point group                 C1      NOp   1
 Largest Abelian subgroup         C1      NOp   1
 Largest concise Abelian subgroup C1      NOp   1
                         Standard orientation:                         
 ---------------------------------------------------------------------
 Center     Atomic      Atomic             Coordinates (Angstroms)
 Number     Number       Type             X           Y           Z
 ---------------------------------------------------------------------
      1          6           0       -3.042096    2.542883   -0.444344
      2          6           0       -2.477069    1.275292   -0.246568
      3          6           0       -3.285509    0.195390    0.162607
      4          6           0       -4.658404    0.328903    0.393934
      5          6           0       -5.194926    1.589574    0.193469
      6          6           0       -4.400148    2.681500   -0.220236
      7          1           0       -2.424988    3.377117   -0.760685
      8          1           0       -5.271483   -0.505283    0.717732
      9          1           0       -6.255769    1.744388    0.360990
     10          1           0       -4.870374    3.648867   -0.362368
     11          7           0       -2.437207   -0.889774    0.253441
     12          7           0       -1.164081    0.858047   -0.390942
     13          6           0       -1.208775   -0.407832   -0.081295
     14          6           0       -2.788680   -2.237728    0.680259
     15          1           0       -2.107568   -2.951528    0.216668
     16          1           0       -2.733346   -2.321938    1.767228
     17          1           0       -3.802617   -2.452900    0.341881
     18         16           0        0.234101   -1.457888   -0.071476
     19          8           0        0.086579   -2.445054   -1.146443
     20          8           0        0.404681   -1.956550    1.296942
     21          6           0        1.563741   -0.331907   -0.474326
     22          6           0        2.887872   -1.120980   -0.521421
     23          1           0        1.568218    0.438269    0.300844
     24          1           0        1.316718    0.121747   -1.436747
     25          6           0        4.025871   -0.204164   -0.828385
     26          1           0        3.037104   -1.601618    0.453543
     27          1           0        2.801587   -1.907613   -1.277091
     28          6           0        4.550154    0.746195    0.195601
     29          1           0        4.274379   -0.027542   -1.871660
     30          1           0        3.934129    1.663392    0.227868
     31          1           0        4.460799    0.297199    1.195520
     32          6           0        6.004476    1.155824   -0.057579
     33          6           0        6.516565    2.149290    0.981213
     34          1           0        6.081359    1.592924   -1.060965
     35          1           0        6.632708    0.257292   -0.060426
     36          1           0        7.554879    2.432022    0.786241
     37          1           0        5.911758    3.062370    0.978209
     38          1           0        6.467390    1.720523    1.987776
 ---------------------------------------------------------------------
 Rotational constants (GHZ):           0.6267483           0.1492200           0.1271809
 Standard basis: 6-31G(d) (6D, 7F)
 There are   327 symmetry adapted cartesian basis functions of A   symmetry.
 There are   327 symmetry adapted basis functions of A   symmetry.
   327 basis functions,   632 primitive gaussians,   327 cartesian basis functions
    75 alpha electrons       74 beta electrons
       nuclear repulsion energy      1561.7680725091 Hartrees.
 NAtoms=   38 NActive=   38 NUniq=   38 SFac= 1.00D+00 NAtFMM=   60 NAOKFM=F Big=F
 Integral buffers will be    131072 words long.
 Raffenetti 2 integral format.
 Two-electron integral symmetry is turned on.
 One-electron integrals computed using PRISM.
 NBasis=   327 RedAO= T EigKep=  3.81D-04  NBF=   327
 NBsUse=   327 1.00D-06 EigRej= -1.00D+00 NBFU=   327
 ExpMin= 1.17D-01 ExpMax= 2.19D+04 ExpMxC= 3.30D+03 IAcc=3 IRadAn=         5 AccDes= 0.00D+00
 Harris functional with IExCor= 1009 and IRadAn=       5 diagonalized for initial guess.
 HarFok:  IExCor= 1009 AccDes= 0.00D+00 IRadAn=         5 IDoV= 1 UseB2=F ITyADJ=14
 ICtDFT=  3500011 ScaDFX=  1.000000  1.000000  1.000000  1.000000
 FoFCou: FMM=F IPFlag=           0 FMFlag=      100000 FMFlg1=           0
         NFxFlg=           0 DoJE=T BraDBF=F KetDBF=T FulRan=T
         wScrn=  0.000000 ICntrl=       500 IOpCl=  0 I1Cent=   200000004 NGrid=           0
         NMat0=    1 NMatS0=      1 NMatT0=    0 NMatD0=    1 NMtDS0=    0 NMtDT0=    0
 Petite list used in FoFCou.
 Initial guess <Sx>= 0.0000 <Sy>= 0.0000 <Sz>= 0.5000 <S**2>= 0.7500 S= 0.5000
 Requested convergence on RMS density matrix=1.00D-08 within 128 cycles.
 Requested convergence on MAX density matrix=1.00D-06.
 Requested convergence on             energy=1.00D-06.
 No special actions if energy rises.
 Integral accuracy reduced to 1.0D-05 until final iterations.
 Initial convergence to 1.0D-05 achieved.  Increase integral accuracy.
 SCF Done:  E(UM062X) =  -1202.57403248     A.U. after   16 cycles
            NFock= 16  Conv=0.67D-08     -V/T= 2.0068
 <Sx>= 0.0000 <Sy>= 0.0000 <Sz>= 0.5000 <S**2>= 0.7549 S= 0.5024
 <L.S>=  0.00000000000    
 Annihilation of the first spin contaminant:
 S**2 before annihilation     0.7549,   after     0.7500

 **********************************************************************

            Population analysis using the SCF Density.

 **********************************************************************

 Orbital symmetries:
 Alpha Orbitals:
       Occupied  (A) (A) (A) (A) (A) (A) (A) (A) (A) (A) (A) (A)
                 (A) (A) (A) (A) (A) (A) (A) (A) (A) (A) (A) (A)
                 (A) (A) (A) (A) (A) (A) (A) (A) (A) (A) (A) (A)
                 (A) (A) (A) (A) (A) (A) (A) (A) (A) (A) (A) (A)
                 (A) (A) (A) (A) (A) (A) (A) (A) (A) (A) (A) (A)
                 (A) (A) (A) (A) (A) (A) (A) (A) (A) (A) (A) (A)
                 (A) (A) (A)
       Virtual   (A) (A) (A) (A) (A) (A) (A) (A) (A) (A) (A) (A)
                 (A) (A) (A) (A) (A) (A) (A) (A) (A) (A) (A) (A)
                 (A) (A) (A) (A) (A) (A) (A) (A) (A) (A) (A) (A)
                 (A) (A) (A) (A) (A) (A) (A) (A) (A) (A) (A) (A)
                 (A) (A) (A) (A) (A) (A) (A) (A) (A) (A) (A) (A)
                 (A) (A) (A) (A) (A) (A) (A) (A) (A) (A) (A) (A)
                 (A) (A) (A) (A) (A) (A) (A) (A) (A) (A) (A) (A)
                 (A) (A) (A) (A) (A) (A) (A) (A) (A) (A) (A) (A)
                 (A) (A) (A) (A) (A) (A) (A) (A) (A) (A) (A) (A)
                 (A) (A) (A) (A) (A) (A) (A) (A) (A) (A) (A) (A)
                 (A) (A) (A) (A) (A) (A) (A) (A) (A) (A) (A) (A)
                 (A) (A) (A) (A) (A) (A) (A) (A) (A) (A) (A) (A)
                 (A) (A) (A) (A) (A) (A) (A) (A) (A) (A) (A) (A)
                 (A) (A) (A) (A) (A) (A) (A) (A) (A) (A) (A) (A)
                 (A) (A) (A) (A) (A) (A) (A) (A) (A) (A) (A) (A)
                 (A) (A) (A) (A) (A) (A) (A) (A) (A) (A) (A) (A)
                 (A) (A) (A) (A) (A) (A) (A) (A) (A) (A) (A) (A)
                 (A) (A) (A) (A) (A) (A) (A) (A) (A) (A) (A) (A)
                 (A) (A) (A) (A) (A) (A) (A) (A) (A) (A) (A) (A)
                 (A) (A) (A) (A) (A) (A) (A) (A) (A) (A) (A) (A)
                 (A) (A) (A) (A) (A) (A) (A) (A) (A) (A) (A) (A)
 Beta  Orbitals:
       Occupied  (A) (A) (A) (A) (A) (A) (A) (A) (A) (A) (A) (A)
                 (A) (A) (A) (A) (A) (A) (A) (A) (A) (A) (A) (A)
                 (A) (A) (A) (A) (A) (A) (A) (A) (A) (A) (A) (A)
                 (A) (A) (A) (A) (A) (A) (A) (A) (A) (A) (A) (A)
                 (A) (A) (A) (A) (A) (A) (A) (A) (A) (A) (A) (A)
                 (A) (A) (A) (A) (A) (A) (A) (A) (A) (A) (A) (A)
                 (A) (A)
       Virtual   (A) (A) (A) (A) (A) (A) (A) (A) (A) (A) (A) (A)
                 (A) (A) (A) (A) (A) (A) (A) (A) (A) (A) (A) (A)
                 (A) (A) (A) (A) (A) (A) (A) (A) (A) (A) (A) (A)
                 (A) (A) (A) (A) (A) (A) (A) (A) (A) (A) (A) (A)
                 (A) (A) (A) (A) (A) (A) (A) (A) (A) (A) (A) (A)
                 (A) (A) (A) (A) (A) (A) (A) (A) (A) (A) (A) (A)
                 (A) (A) (A) (A) (A) (A) (A) (A) (A) (A) (A) (A)
                 (A) (A) (A) (A) (A) (A) (A) (A) (A) (A) (A) (A)
                 (A) (A) (A) (A) (A) (A) (A) (A) (A) (A) (A) (A)
                 (A) (A) (A) (A) (A) (A) (A) (A) (A) (A) (A) (A)
                 (A) (A) (A) (A) (A) (A) (A) (A) (A) (A) (A) (A)
                 (A) (A) (A) (A) (A) (A) (A) (A) (A) (A) (A) (A)
                 (A) (A) (A) (A) (A) (A) (A) (A) (A) (A) (A) (A)
                 (A) (A) (A) (A) (A) (A) (A) (A) (A) (A) (A) (A)
                 (A) (A) (A) (A) (A) (A) (A) (A) (A) (A) (A) (A)
                 (A) (A) (A) (A) (A) (A) (A) (A) (A) (A) (A) (A)
                 (A) (A) (A) (A) (A) (A) (A) (A) (A) (A) (A) (A)
                 (A) (A) (A) (A) (A) (A) (A) (A) (A) (A) (A) (A)
                 (A) (A) (A) (A) (A) (A) (A) (A) (A) (A) (A) (A)
                 (A) (A) (A) (A) (A) (A) (A) (A) (A) (A) (A) (A)
                 (A) (A) (A) (A) (A) (A) (A) (A) (A) (A) (A) (A)
                 (A)
 The electronic state is 2-A.
 Alpha  occ. eigenvalues --  -90.14282 -19.63397 -19.63371 -14.84056 -14.76934
 Alpha  occ. eigenvalues --  -10.64473 -10.60222 -10.59825 -10.59002 -10.58329
 Alpha  occ. eigenvalues --  -10.56750 -10.56397 -10.56163 -10.56006 -10.55996
 Alpha  occ. eigenvalues --  -10.55598 -10.54839 -10.54381 -10.53405  -8.45768
 Alpha  occ. eigenvalues --   -6.37902  -6.37891  -6.37824  -1.22721  -1.15630
 Alpha  occ. eigenvalues --   -1.11397  -1.02062  -0.95990  -0.93161  -0.89454
 Alpha  occ. eigenvalues --   -0.86577  -0.85552  -0.83078  -0.82425  -0.78247
 Alpha  occ. eigenvalues --   -0.74429  -0.70160  -0.68692  -0.67925  -0.65860
 Alpha  occ. eigenvalues --   -0.65298  -0.60745  -0.59263  -0.58820  -0.57386
 Alpha  occ. eigenvalues --   -0.56461  -0.55352  -0.54231  -0.52465  -0.52290
 Alpha  occ. eigenvalues --   -0.51234  -0.51132  -0.49593  -0.49127  -0.48847
 Alpha  occ. eigenvalues --   -0.48367  -0.47767  -0.46429  -0.44369  -0.43512
 Alpha  occ. eigenvalues --   -0.42977  -0.42550  -0.42141  -0.40080  -0.40010
 Alpha  occ. eigenvalues --   -0.39488  -0.39175  -0.38657  -0.37386  -0.37252
 Alpha  occ. eigenvalues --   -0.36821  -0.35087  -0.28928  -0.28687  -0.24767
 Alpha virt. eigenvalues --   -0.00418   0.04626   0.06954   0.08502   0.12186
 Alpha virt. eigenvalues --    0.12802   0.13877   0.14361   0.14926   0.15592
 Alpha virt. eigenvalues --    0.15664   0.16700   0.17480   0.18116   0.18637
 Alpha virt. eigenvalues --    0.19415   0.19506   0.19958   0.20460   0.20834
 Alpha virt. eigenvalues --    0.21992   0.22312   0.22458   0.22799   0.23302
 Alpha virt. eigenvalues --    0.23669   0.24054   0.25246   0.25512   0.27803
 Alpha virt. eigenvalues --    0.29523   0.29773   0.30471   0.30735   0.32777
 Alpha virt. eigenvalues --    0.33340   0.35173   0.36277   0.37417   0.41352
 Alpha virt. eigenvalues --    0.42670   0.45474   0.45961   0.46822   0.50112
 Alpha virt. eigenvalues --    0.50586   0.53615   0.54104   0.54446   0.56315
 Alpha virt. eigenvalues --    0.56972   0.57039   0.57876   0.58618   0.59366
 Alpha virt. eigenvalues --    0.59510   0.60588   0.61977   0.62609   0.64112
 Alpha virt. eigenvalues --    0.64622   0.64841   0.65198   0.65789   0.66743
 Alpha virt. eigenvalues --    0.67304   0.68187   0.69562   0.70641   0.71689
 Alpha virt. eigenvalues --    0.72256   0.73085   0.73535   0.75781   0.76436
 Alpha virt. eigenvalues --    0.76725   0.79687   0.80603   0.82592   0.83660
 Alpha virt. eigenvalues --    0.84201   0.85529   0.86428   0.87265   0.87451
 Alpha virt. eigenvalues --    0.88724   0.89218   0.90089   0.90263   0.90970
 Alpha virt. eigenvalues --    0.91280   0.92108   0.92759   0.93477   0.93973
 Alpha virt. eigenvalues --    0.94498   0.96088   0.96406   0.96803   0.97132
 Alpha virt. eigenvalues --    0.97475   0.98000   0.98589   0.99407   0.99736
 Alpha virt. eigenvalues --    1.00676   1.01655   1.02128   1.02900   1.03253
 Alpha virt. eigenvalues --    1.04462   1.05129   1.05641   1.07642   1.10352
 Alpha virt. eigenvalues --    1.12190   1.13009   1.14102   1.15345   1.16900
 Alpha virt. eigenvalues --    1.18156   1.19777   1.21878   1.23479   1.24750
 Alpha virt. eigenvalues --    1.26109   1.27333   1.29674   1.30715   1.32779
 Alpha virt. eigenvalues --    1.34734   1.36391   1.37349   1.38672   1.43209
 Alpha virt. eigenvalues --    1.44276   1.45072   1.45628   1.46850   1.47303
 Alpha virt. eigenvalues --    1.48503   1.50584   1.52304   1.53864   1.54054
 Alpha virt. eigenvalues --    1.55375   1.57528   1.61725   1.63999   1.67252
 Alpha virt. eigenvalues --    1.70509   1.72164   1.73563   1.76023   1.77581
 Alpha virt. eigenvalues --    1.81457   1.83326   1.85242   1.85346   1.86382
 Alpha virt. eigenvalues --    1.87025   1.87353   1.88044   1.88893   1.91952
 Alpha virt. eigenvalues --    1.93262   1.93467   1.94207   1.96409   1.97417
 Alpha virt. eigenvalues --    1.98022   1.99757   2.00401   2.01118   2.01736
 Alpha virt. eigenvalues --    2.02927   2.03174   2.04224   2.04964   2.05694
 Alpha virt. eigenvalues --    2.06442   2.09131   2.11223   2.13666   2.14320
 Alpha virt. eigenvalues --    2.16325   2.17476   2.17855   2.20801   2.22718
 Alpha virt. eigenvalues --    2.23538   2.24705   2.26358   2.27337   2.27593
 Alpha virt. eigenvalues --    2.28643   2.30209   2.30727   2.32473   2.35676
 Alpha virt. eigenvalues --    2.36873   2.37637   2.38284   2.39352   2.40586
 Alpha virt. eigenvalues --    2.41235   2.45421   2.46724   2.53080   2.53293
 Alpha virt. eigenvalues --    2.54537   2.56520   2.59611   2.62672   2.64250
 Alpha virt. eigenvalues --    2.65762   2.68282   2.69606   2.69936   2.70415
 Alpha virt. eigenvalues --    2.73933   2.77623   2.80380   2.81544   2.82613
 Alpha virt. eigenvalues --    2.85497   2.87330   2.88311   2.95258   3.06471
 Alpha virt. eigenvalues --    3.13721   3.24170   3.46199   3.88358   3.96160
 Alpha virt. eigenvalues --    4.07902   4.10658   4.13393   4.14524   4.18361
 Alpha virt. eigenvalues --    4.20106   4.22157   4.27407   4.29572   4.33454
 Alpha virt. eigenvalues --    4.37600   4.39904   4.44088   4.47605   4.50040
 Alpha virt. eigenvalues --    4.55024   4.79696
  Beta  occ. eigenvalues --  -90.14271 -19.63395 -19.63366 -14.84054 -14.76935
  Beta  occ. eigenvalues --  -10.64463 -10.60222 -10.59825 -10.58897 -10.58329
  Beta  occ. eigenvalues --  -10.56749 -10.56465 -10.56163 -10.55997 -10.55598
  Beta  occ. eigenvalues --  -10.55245 -10.54906 -10.54351 -10.53404  -8.45762
  Beta  occ. eigenvalues --   -6.37900  -6.37888  -6.37801  -1.22701  -1.15622
  Beta  occ. eigenvalues --   -1.11385  -1.02059  -0.95985  -0.92223  -0.89124
  Beta  occ. eigenvalues --   -0.86492  -0.85440  -0.82802  -0.81796  -0.78069
  Beta  occ. eigenvalues --   -0.74094  -0.70023  -0.68488  -0.67701  -0.65691
  Beta  occ. eigenvalues --   -0.63823  -0.60634  -0.59239  -0.58676  -0.57333
  Beta  occ. eigenvalues --   -0.56223  -0.55152  -0.53742  -0.52297  -0.52273
  Beta  occ. eigenvalues --   -0.51225  -0.51103  -0.49343  -0.49091  -0.48731
  Beta  occ. eigenvalues --   -0.47668  -0.46637  -0.45979  -0.44035  -0.43491
  Beta  occ. eigenvalues --   -0.42967  -0.42411  -0.42004  -0.39970  -0.39718
  Beta  occ. eigenvalues --   -0.39261  -0.39108  -0.38410  -0.37361  -0.37103
  Beta  occ. eigenvalues --   -0.36807  -0.34961  -0.28923  -0.28687
  Beta virt. eigenvalues --   -0.00434   0.00207   0.04629   0.06968   0.08848
  Beta virt. eigenvalues --    0.12334   0.12829   0.14026   0.14383   0.15025
  Beta virt. eigenvalues --    0.15763   0.15989   0.16739   0.17473   0.18280
  Beta virt. eigenvalues --    0.18762   0.19423   0.19511   0.19953   0.20473
  Beta virt. eigenvalues --    0.20891   0.22123   0.22340   0.22534   0.22968
  Beta virt. eigenvalues --    0.23405   0.23912   0.24205   0.25485   0.25876
  Beta virt. eigenvalues --    0.28282   0.29656   0.29925   0.30579   0.30843
  Beta virt. eigenvalues --    0.33331   0.34211   0.35412   0.37005   0.37545
  Beta virt. eigenvalues --    0.41473   0.42758   0.45636   0.46027   0.46982
  Beta virt. eigenvalues --    0.50137   0.50773   0.53769   0.54191   0.54977
  Beta virt. eigenvalues --    0.56542   0.57060   0.57573   0.58006   0.59097
  Beta virt. eigenvalues --    0.59533   0.59971   0.61966   0.62102   0.63332
  Beta virt. eigenvalues --    0.64588   0.64653   0.65217   0.65474   0.65855
  Beta virt. eigenvalues --    0.67285   0.67751   0.68361   0.69642   0.70861
  Beta virt. eigenvalues --    0.72028   0.72419   0.73099   0.74257   0.76123
  Beta virt. eigenvalues --    0.76550   0.76896   0.79711   0.81031   0.82625
  Beta virt. eigenvalues --    0.83767   0.84379   0.85614   0.86482   0.87453
  Beta virt. eigenvalues --    0.87579   0.88958   0.89269   0.90219   0.90296
  Beta virt. eigenvalues --    0.90993   0.91476   0.92678   0.92819   0.93546
  Beta virt. eigenvalues --    0.94079   0.94794   0.96140   0.96442   0.97168
  Beta virt. eigenvalues --    0.97575   0.97985   0.98132   0.98664   0.99574
  Beta virt. eigenvalues --    0.99806   1.00869   1.01785   1.02224   1.03037
  Beta virt. eigenvalues --    1.03333   1.04509   1.05208   1.05807   1.07717
  Beta virt. eigenvalues --    1.10359   1.12261   1.13019   1.14255   1.15372
  Beta virt. eigenvalues --    1.17239   1.18309   1.19889   1.21896   1.24406
  Beta virt. eigenvalues --    1.25310   1.26199   1.27392   1.29862   1.30776
  Beta virt. eigenvalues --    1.32839   1.34803   1.36406   1.37370   1.38772
  Beta virt. eigenvalues --    1.43220   1.44728   1.45533   1.46226   1.46965
  Beta virt. eigenvalues --    1.47362   1.48540   1.50638   1.53525   1.53999
  Beta virt. eigenvalues --    1.54081   1.55412   1.57879   1.61904   1.64059
  Beta virt. eigenvalues --    1.67771   1.70817   1.72234   1.74476   1.76774
  Beta virt. eigenvalues --    1.77603   1.82987   1.83668   1.85254   1.85522
  Beta virt. eigenvalues --    1.86612   1.87111   1.87486   1.88125   1.90141
  Beta virt. eigenvalues --    1.92299   1.93469   1.94209   1.94607   1.96874
  Beta virt. eigenvalues --    1.97827   1.98877   2.00089   2.00691   2.01438
  Beta virt. eigenvalues --    2.01839   2.03068   2.04027   2.04265   2.05385
  Beta virt. eigenvalues --    2.05768   2.07595   2.10873   2.11324   2.13699
  Beta virt. eigenvalues --    2.14872   2.16686   2.17849   2.18047   2.20824
  Beta virt. eigenvalues --    2.22744   2.24716   2.25284   2.26443   2.27340
  Beta virt. eigenvalues --    2.27682   2.29084   2.30295   2.31317   2.32566
  Beta virt. eigenvalues --    2.36085   2.37196   2.37739   2.38377   2.39702
  Beta virt. eigenvalues --    2.41054   2.41874   2.46346   2.46735   2.53261
  Beta virt. eigenvalues --    2.54380   2.55292   2.56552   2.60062   2.62684
  Beta virt. eigenvalues --    2.65206   2.65952   2.68874   2.69769   2.70392
  Beta virt. eigenvalues --    2.71420   2.73979   2.77679   2.81752   2.83564
  Beta virt. eigenvalues --    2.85271   2.85960   2.87358   2.88515   2.95272
  Beta virt. eigenvalues --    3.06489   3.13759   3.24172   3.46201   3.88373
  Beta virt. eigenvalues --    3.96281   4.07973   4.10662   4.14483   4.15033
  Beta virt. eigenvalues --    4.18405   4.20252   4.22707   4.27439   4.30748
  Beta virt. eigenvalues --    4.33485   4.38709   4.39918   4.44122   4.47706
  Beta virt. eigenvalues --    4.50158   4.55917   4.79698
          Condensed to atoms (all electrons):
               1          2          3          4          5          6
     1  C    4.953578   0.534700  -0.061150  -0.041073  -0.032590   0.547219
     2  C    0.534700   4.674256   0.499540  -0.044443  -0.040091  -0.016747
     3  C   -0.061150   0.499540   4.766978   0.493305  -0.003134  -0.041510
     4  C   -0.041073  -0.044443   0.493305   4.987524   0.544364  -0.040457
     5  C   -0.032590  -0.040091  -0.003134   0.544364   4.884181   0.526516
     6  C    0.547219  -0.016747  -0.041510  -0.040457   0.526516   4.902905
     7  H    0.357163  -0.029962   0.005928   0.000142   0.004005  -0.040577
     8  H    0.000301   0.003470  -0.033036   0.358359  -0.034292   0.003596
     9  H    0.003506   0.001017   0.002308  -0.035598   0.368527  -0.035182
    10  H   -0.034550   0.002533   0.000818   0.004022  -0.037208   0.369712
    11  N    0.010890  -0.040959   0.268632  -0.087394   0.005257   0.000008
    12  N   -0.071986   0.376698  -0.077686   0.011316  -0.000340   0.004627
    13  C    0.004696  -0.103151  -0.089237   0.006935  -0.000058  -0.000122
    14  C   -0.000094   0.007165  -0.035042  -0.001196   0.000020   0.000001
    15  H    0.000004  -0.000135   0.002649   0.000043  -0.000001   0.000000
    16  H   -0.000001  -0.000206   0.000079   0.000789  -0.000002  -0.000001
    17  H   -0.000004   0.000044  -0.005233   0.002736   0.000066  -0.000003
    18  S   -0.000498  -0.005015   0.001732  -0.000188   0.000003   0.000006
    19  O   -0.000000  -0.000222   0.000053   0.000001  -0.000000  -0.000000
    20  O   -0.000000  -0.000174  -0.000189  -0.000001  -0.000000  -0.000000
    21  C    0.000010  -0.000078  -0.000230  -0.000001  -0.000000   0.000000
    22  C   -0.000000   0.000003   0.000001  -0.000000   0.000000   0.000000
    23  H   -0.000003  -0.000033   0.000004  -0.000000   0.000000  -0.000000
    24  H   -0.000006  -0.000055   0.000026  -0.000000   0.000000  -0.000000
    25  C    0.000000  -0.000000  -0.000000   0.000000  -0.000000   0.000000
    26  H    0.000000   0.000000   0.000000   0.000000  -0.000000   0.000000
    27  H    0.000000   0.000000  -0.000000   0.000000   0.000000   0.000000
    28  C    0.000000   0.000000   0.000000   0.000000  -0.000000   0.000000
    29  H   -0.000000   0.000000   0.000000   0.000000   0.000000  -0.000000
    30  H   -0.000000   0.000000  -0.000000  -0.000000   0.000000  -0.000000
    31  H   -0.000000  -0.000000   0.000000   0.000000  -0.000000   0.000000
    32  C    0.000000  -0.000000  -0.000000   0.000000  -0.000000   0.000000
    33  C   -0.000000   0.000000   0.000000   0.000000   0.000000  -0.000000
    34  H   -0.000000  -0.000000   0.000000   0.000000  -0.000000   0.000000
    35  H   -0.000000   0.000000  -0.000000  -0.000000   0.000000  -0.000000
    36  H    0.000000  -0.000000  -0.000000   0.000000  -0.000000   0.000000
    37  H   -0.000000  -0.000000  -0.000000  -0.000000   0.000000  -0.000000
    38  H   -0.000000   0.000000   0.000000   0.000000   0.000000  -0.000000
               7          8          9         10         11         12
     1  C    0.357163   0.000301   0.003506  -0.034550   0.010890  -0.071986
     2  C   -0.029962   0.003470   0.001017   0.002533  -0.040959   0.376698
     3  C    0.005928  -0.033036   0.002308   0.000818   0.268632  -0.077686
     4  C    0.000142   0.358359  -0.035598   0.004022  -0.087394   0.011316
     5  C    0.004005  -0.034292   0.368527  -0.037208   0.005257  -0.000340
     6  C   -0.040577   0.003596  -0.035182   0.369712   0.000008   0.004627
     7  H    0.527862   0.000014  -0.000128  -0.004264  -0.000107  -0.001694
     8  H    0.000014   0.535095  -0.003991  -0.000139  -0.006206  -0.000128
     9  H   -0.000128  -0.003991   0.535562  -0.004337  -0.000111   0.000003
    10  H   -0.004264  -0.000139  -0.004337   0.536461   0.000004  -0.000087
    11  N   -0.000107  -0.006206  -0.000111   0.000004   7.092538  -0.099232
    12  N   -0.001694  -0.000128   0.000003  -0.000087  -0.099232   6.945779
    13  C   -0.000007  -0.000194   0.000004   0.000005   0.323219   0.444933
    14  C    0.000001   0.002315  -0.000000  -0.000000   0.242271   0.004106
    15  H   -0.000000  -0.000022  -0.000000  -0.000000  -0.028661   0.000124
    16  H   -0.000000  -0.000032  -0.000000   0.000000  -0.039944   0.000011
    17  H    0.000000   0.001868   0.000003  -0.000000  -0.034351  -0.000149
    18  S    0.000004   0.000001  -0.000000  -0.000000  -0.028093  -0.009988
    19  O    0.000000   0.000000   0.000000   0.000000   0.000420   0.000830
    20  O    0.000000  -0.000000   0.000000   0.000000  -0.002388   0.000909
    21  C   -0.000000   0.000000   0.000000  -0.000000   0.003584  -0.006873
    22  C    0.000000   0.000000  -0.000000  -0.000000  -0.000016   0.000502
    23  H    0.000001   0.000000   0.000000  -0.000000  -0.000052   0.002428
    24  H    0.000002   0.000000   0.000000  -0.000000   0.000012   0.003110
    25  C   -0.000000   0.000000   0.000000   0.000000   0.000000  -0.000008
    26  H   -0.000000  -0.000000  -0.000000  -0.000000  -0.000000  -0.000012
    27  H   -0.000000  -0.000000  -0.000000  -0.000000  -0.000001  -0.000011
    28  C   -0.000000  -0.000000  -0.000000   0.000000  -0.000000  -0.000001
    29  H    0.000000  -0.000000  -0.000000  -0.000000  -0.000000   0.000000
    30  H   -0.000000  -0.000000  -0.000000  -0.000000  -0.000000  -0.000001
    31  H    0.000000   0.000000   0.000000  -0.000000  -0.000000   0.000000
    32  C   -0.000000  -0.000000   0.000000  -0.000000   0.000000  -0.000000
    33  C    0.000000  -0.000000  -0.000000   0.000000  -0.000000   0.000000
    34  H    0.000000   0.000000  -0.000000  -0.000000  -0.000000   0.000000
    35  H    0.000000  -0.000000  -0.000000   0.000000  -0.000000   0.000000
    36  H   -0.000000   0.000000   0.000000  -0.000000   0.000000  -0.000000
    37  H    0.000000   0.000000   0.000000   0.000000   0.000000   0.000000
    38  H    0.000000  -0.000000  -0.000000  -0.000000  -0.000000   0.000000
              13         14         15         16         17         18
     1  C    0.004696  -0.000094   0.000004  -0.000001  -0.000004  -0.000498
     2  C   -0.103151   0.007165  -0.000135  -0.000206   0.000044  -0.005015
     3  C   -0.089237  -0.035042   0.002649   0.000079  -0.005233   0.001732
     4  C    0.006935  -0.001196   0.000043   0.000789   0.002736  -0.000188
     5  C   -0.000058   0.000020  -0.000001  -0.000002   0.000066   0.000003
     6  C   -0.000122   0.000001   0.000000  -0.000001  -0.000003   0.000006
     7  H   -0.000007   0.000001  -0.000000  -0.000000   0.000000   0.000004
     8  H   -0.000194   0.002315  -0.000022  -0.000032   0.001868   0.000001
     9  H    0.000004  -0.000000  -0.000000  -0.000000   0.000003  -0.000000
    10  H    0.000005  -0.000000  -0.000000   0.000000  -0.000000  -0.000000
    11  N    0.323219   0.242271  -0.028661  -0.039944  -0.034351  -0.028093
    12  N    0.444933   0.004106   0.000124   0.000011  -0.000149  -0.009988
    13  C    5.309395  -0.039805  -0.006845  -0.001185   0.002696   0.083517
    14  C   -0.039805   5.045897   0.375694   0.383446   0.375406   0.005901
    15  H   -0.006845   0.375694   0.442572  -0.023217  -0.021287   0.010088
    16  H   -0.001185   0.383446  -0.023217   0.496440  -0.031477   0.000289
    17  H    0.002696   0.375406  -0.021287  -0.031477   0.516895   0.000003
    18  S    0.083517   0.005901   0.010088   0.000289   0.000003  13.728295
    19  O   -0.063129  -0.006283   0.008594   0.000099  -0.000020   0.449427
    20  O   -0.061331   0.004372  -0.003498   0.000164   0.000136   0.456037
    21  C   -0.049719  -0.000121   0.000088   0.000007   0.000002   0.178928
    22  C    0.001696   0.000001   0.000001   0.000000   0.000000  -0.018342
    23  H    0.000024   0.000007  -0.000007  -0.000000   0.000000  -0.008059
    24  H   -0.000457  -0.000007   0.000004  -0.000000  -0.000000  -0.005893
    25  C   -0.000021  -0.000000   0.000000   0.000000  -0.000000   0.001309
    26  H    0.000081  -0.000000   0.000001   0.000000  -0.000000   0.001819
    27  H    0.000069   0.000001  -0.000001  -0.000000  -0.000000   0.000758
    28  C   -0.000001   0.000000   0.000000  -0.000000   0.000000   0.000018
    29  H    0.000000   0.000000  -0.000000   0.000000   0.000000  -0.000029
    30  H    0.000000   0.000000  -0.000000  -0.000000  -0.000000  -0.000072
    31  H    0.000000   0.000000  -0.000000   0.000000   0.000000   0.000023
    32  C    0.000000   0.000000  -0.000000  -0.000000  -0.000000   0.000001
    33  C   -0.000000   0.000000   0.000000  -0.000000   0.000000  -0.000000
    34  H    0.000000   0.000000   0.000000  -0.000000   0.000000   0.000000
    35  H   -0.000000  -0.000000   0.000000   0.000000   0.000000  -0.000000
    36  H    0.000000  -0.000000  -0.000000  -0.000000  -0.000000   0.000000
    37  H   -0.000000  -0.000000   0.000000   0.000000   0.000000  -0.000000
    38  H    0.000000   0.000000   0.000000  -0.000000   0.000000   0.000000
              19         20         21         22         23         24
     1  C   -0.000000  -0.000000   0.000010  -0.000000  -0.000003  -0.000006
     2  C   -0.000222  -0.000174  -0.000078   0.000003  -0.000033  -0.000055
     3  C    0.000053  -0.000189  -0.000230   0.000001   0.000004   0.000026
     4  C    0.000001  -0.000001  -0.000001  -0.000000  -0.000000  -0.000000
     5  C   -0.000000  -0.000000  -0.000000   0.000000   0.000000   0.000000
     6  C   -0.000000  -0.000000   0.000000   0.000000  -0.000000  -0.000000
     7  H    0.000000   0.000000  -0.000000   0.000000   0.000001   0.000002
     8  H    0.000000  -0.000000   0.000000   0.000000   0.000000   0.000000
     9  H    0.000000   0.000000   0.000000  -0.000000   0.000000   0.000000
    10  H    0.000000   0.000000  -0.000000  -0.000000  -0.000000  -0.000000
    11  N    0.000420  -0.002388   0.003584  -0.000016  -0.000052   0.000012
    12  N    0.000830   0.000909  -0.006873   0.000502   0.002428   0.003110
    13  C   -0.063129  -0.061331  -0.049719   0.001696   0.000024  -0.000457
    14  C   -0.006283   0.004372  -0.000121   0.000001   0.000007  -0.000007
    15  H    0.008594  -0.003498   0.000088   0.000001  -0.000007   0.000004
    16  H    0.000099   0.000164   0.000007   0.000000  -0.000000  -0.000000
    17  H   -0.000020   0.000136   0.000002   0.000000   0.000000  -0.000000
    18  S    0.449427   0.456037   0.178928  -0.018342  -0.008059  -0.005893
    19  O    8.275302  -0.050979  -0.060466  -0.003521   0.001614  -0.000905
    20  O   -0.050979   8.271810  -0.059970  -0.004392  -0.000808   0.001580
    21  C   -0.060466  -0.059970   5.662810   0.295432   0.349402   0.346744
    22  C   -0.003521  -0.004392   0.295432   5.092807  -0.027137  -0.027718
    23  H    0.001614  -0.000808   0.349402  -0.027137   0.473638  -0.021767
    24  H   -0.000905   0.001580   0.346744  -0.027718  -0.021767   0.469291
    25  C   -0.000047  -0.000078  -0.058708   0.381879  -0.006869  -0.002309
    26  H   -0.000507   0.006601  -0.049598   0.384663  -0.003076   0.004215
    27  H    0.006669  -0.000352  -0.045570   0.383836   0.003947  -0.003054
    28  C   -0.000001   0.000005  -0.001973  -0.045841   0.003164  -0.000162
    29  H    0.000005  -0.000001  -0.000248  -0.041032   0.000068   0.001386
    30  H   -0.000000   0.000001   0.001834  -0.000968   0.000586   0.000091
    31  H    0.000000  -0.000005  -0.001072  -0.003078   0.000470   0.000061
    32  C    0.000000  -0.000000   0.000045   0.003009  -0.000038  -0.000014
    33  C   -0.000000   0.000000   0.000002  -0.000119   0.000003   0.000000
    34  H   -0.000000  -0.000000  -0.000012   0.000148   0.000004   0.000001
    35  H   -0.000000   0.000000   0.000011  -0.000074   0.000000   0.000000
    36  H    0.000000  -0.000000   0.000000   0.000001  -0.000000  -0.000000
    37  H   -0.000000  -0.000000  -0.000000  -0.000002  -0.000000   0.000000
    38  H   -0.000000   0.000000  -0.000000   0.000003   0.000000  -0.000000
              25         26         27         28         29         30
     1  C    0.000000   0.000000   0.000000   0.000000  -0.000000  -0.000000
     2  C   -0.000000   0.000000   0.000000   0.000000   0.000000   0.000000
     3  C   -0.000000   0.000000  -0.000000   0.000000   0.000000  -0.000000
     4  C    0.000000   0.000000   0.000000   0.000000   0.000000  -0.000000
     5  C   -0.000000  -0.000000   0.000000  -0.000000   0.000000   0.000000
     6  C    0.000000   0.000000   0.000000   0.000000  -0.000000  -0.000000
     7  H   -0.000000  -0.000000  -0.000000  -0.000000   0.000000  -0.000000
     8  H    0.000000  -0.000000  -0.000000  -0.000000  -0.000000  -0.000000
     9  H    0.000000  -0.000000  -0.000000  -0.000000  -0.000000  -0.000000
    10  H    0.000000  -0.000000  -0.000000   0.000000  -0.000000  -0.000000
    11  N    0.000000  -0.000000  -0.000001  -0.000000  -0.000000  -0.000000
    12  N   -0.000008  -0.000012  -0.000011  -0.000001   0.000000  -0.000001
    13  C   -0.000021   0.000081   0.000069  -0.000001   0.000000   0.000000
    14  C   -0.000000  -0.000000   0.000001   0.000000   0.000000   0.000000
    15  H    0.000000   0.000001  -0.000001   0.000000  -0.000000  -0.000000
    16  H    0.000000   0.000000  -0.000000  -0.000000   0.000000  -0.000000
    17  H   -0.000000  -0.000000  -0.000000   0.000000   0.000000  -0.000000
    18  S    0.001309   0.001819   0.000758   0.000018  -0.000029  -0.000072
    19  O   -0.000047  -0.000507   0.006669  -0.000001   0.000005  -0.000000
    20  O   -0.000078   0.006601  -0.000352   0.000005  -0.000001   0.000001
    21  C   -0.058708  -0.049598  -0.045570  -0.001973  -0.000248   0.001834
    22  C    0.381879   0.384663   0.383836  -0.045841  -0.041032  -0.000968
    23  H   -0.006869  -0.003076   0.003947   0.003164   0.000068   0.000586
    24  H   -0.002309   0.004215  -0.003054  -0.000162   0.001386   0.000091
    25  C    5.238124  -0.041508  -0.031206   0.378737   0.378757  -0.045554
    26  H   -0.041508   0.517106  -0.024037  -0.004497   0.003734  -0.000178
    27  H   -0.031206  -0.024037   0.504267   0.003638  -0.003668  -0.000150
    28  C    0.378737  -0.004497   0.003638   5.052140  -0.043169   0.372605
    29  H    0.378757   0.003734  -0.003668  -0.043169   0.543796  -0.000175
    30  H   -0.045554  -0.000178  -0.000150   0.372605  -0.000175   0.593582
    31  H   -0.045364   0.005149   0.000153   0.381667   0.004417  -0.038843
    32  C   -0.042312   0.000059  -0.000089   0.367924  -0.003656  -0.043326
    33  C    0.004287  -0.000007   0.000001  -0.050329   0.000049  -0.001767
    34  H   -0.003090   0.000006   0.000006  -0.042873   0.003738  -0.005029
    35  H    0.001439   0.000000  -0.000015  -0.042378  -0.000040   0.005644
    36  H   -0.000122   0.000000  -0.000000   0.004376   0.000001  -0.000022
    37  H    0.000021   0.000000  -0.000000  -0.004733   0.000003   0.004878
    38  H    0.000084  -0.000002   0.000000  -0.004661   0.000004  -0.000370
              31         32         33         34         35         36
     1  C   -0.000000   0.000000  -0.000000  -0.000000  -0.000000   0.000000
     2  C   -0.000000  -0.000000   0.000000  -0.000000   0.000000  -0.000000
     3  C    0.000000  -0.000000   0.000000   0.000000  -0.000000  -0.000000
     4  C    0.000000   0.000000   0.000000   0.000000  -0.000000   0.000000
     5  C   -0.000000  -0.000000   0.000000  -0.000000   0.000000  -0.000000
     6  C    0.000000   0.000000  -0.000000   0.000000  -0.000000   0.000000
     7  H    0.000000  -0.000000   0.000000   0.000000   0.000000  -0.000000
     8  H    0.000000  -0.000000  -0.000000   0.000000  -0.000000   0.000000
     9  H    0.000000   0.000000  -0.000000  -0.000000  -0.000000   0.000000
    10  H   -0.000000  -0.000000   0.000000  -0.000000   0.000000  -0.000000
    11  N   -0.000000   0.000000  -0.000000  -0.000000  -0.000000   0.000000
    12  N    0.000000  -0.000000   0.000000   0.000000   0.000000  -0.000000
    13  C    0.000000   0.000000  -0.000000   0.000000  -0.000000   0.000000
    14  C    0.000000   0.000000   0.000000   0.000000  -0.000000  -0.000000
    15  H   -0.000000  -0.000000   0.000000   0.000000   0.000000  -0.000000
    16  H    0.000000  -0.000000  -0.000000  -0.000000   0.000000  -0.000000
    17  H    0.000000  -0.000000   0.000000   0.000000   0.000000  -0.000000
    18  S    0.000023   0.000001  -0.000000   0.000000  -0.000000   0.000000
    19  O    0.000000   0.000000  -0.000000  -0.000000  -0.000000   0.000000
    20  O   -0.000005  -0.000000   0.000000  -0.000000   0.000000  -0.000000
    21  C   -0.001072   0.000045   0.000002  -0.000012   0.000011   0.000000
    22  C   -0.003078   0.003009  -0.000119   0.000148  -0.000074   0.000001
    23  H    0.000470  -0.000038   0.000003   0.000004   0.000000  -0.000000
    24  H    0.000061  -0.000014   0.000000   0.000001   0.000000  -0.000000
    25  C   -0.045364  -0.042312   0.004287  -0.003090   0.001439  -0.000122
    26  H    0.005149   0.000059  -0.000007   0.000006   0.000000   0.000000
    27  H    0.000153  -0.000089   0.000001   0.000006  -0.000015  -0.000000
    28  C    0.381667   0.367924  -0.050329  -0.042873  -0.042378   0.004376
    29  H    0.004417  -0.003656   0.000049   0.003738  -0.000040   0.000001
    30  H   -0.038843  -0.043326  -0.001767  -0.005029   0.005644  -0.000022
    31  H    0.571412  -0.034591  -0.003053   0.005152  -0.005130  -0.000034
    32  C   -0.034591   5.014931   0.354824   0.389314   0.387633  -0.029130
    33  C   -0.003053   0.354824   5.102680  -0.038562  -0.036295   0.381487
    34  H    0.005152   0.389314  -0.038562   0.575833  -0.034521  -0.002817
    35  H   -0.005130   0.387633  -0.036295  -0.034521   0.565971  -0.002592
    36  H   -0.000034  -0.029130   0.381487  -0.002817  -0.002592   0.540833
    37  H   -0.000341  -0.036386   0.384217  -0.004164   0.004727  -0.027851
    38  H    0.004067  -0.035796   0.384600   0.004777  -0.004098  -0.027902
              37         38
     1  C   -0.000000  -0.000000
     2  C   -0.000000   0.000000
     3  C   -0.000000   0.000000
     4  C   -0.000000   0.000000
     5  C    0.000000   0.000000
     6  C   -0.000000  -0.000000
     7  H    0.000000   0.000000
     8  H    0.000000  -0.000000
     9  H    0.000000  -0.000000
    10  H    0.000000  -0.000000
    11  N    0.000000  -0.000000
    12  N    0.000000   0.000000
    13  C   -0.000000   0.000000
    14  C   -0.000000   0.000000
    15  H    0.000000   0.000000
    16  H    0.000000  -0.000000
    17  H    0.000000   0.000000
    18  S   -0.000000   0.000000
    19  O   -0.000000  -0.000000
    20  O   -0.000000   0.000000
    21  C   -0.000000  -0.000000
    22  C   -0.000002   0.000003
    23  H   -0.000000   0.000000
    24  H    0.000000  -0.000000
    25  C    0.000021   0.000084
    26  H    0.000000  -0.000002
    27  H   -0.000000   0.000000
    28  C   -0.004733  -0.004661
    29  H    0.000003   0.000004
    30  H    0.004878  -0.000370
    31  H   -0.000341   0.004067
    32  C   -0.036386  -0.035796
    33  C    0.384217   0.384600
    34  H   -0.004164   0.004777
    35  H    0.004727  -0.004098
    36  H   -0.027851  -0.027902
    37  H    0.552447  -0.030044
    38  H   -0.030044   0.550070
          Atomic-Atomic Spin Densities.
               1          2          3          4          5          6
     1  C   -0.000026  -0.000094  -0.000009  -0.000009   0.000011   0.000009
     2  C   -0.000094   0.000252  -0.000122   0.000061  -0.000028   0.000011
     3  C   -0.000009  -0.000122   0.000942  -0.000112   0.000026  -0.000010
     4  C   -0.000009   0.000061  -0.000112   0.000212  -0.000039   0.000002
     5  C    0.000011  -0.000028   0.000026  -0.000039  -0.000033  -0.000016
     6  C    0.000009   0.000011  -0.000010   0.000002  -0.000016   0.000014
     7  H   -0.000011   0.000009   0.000005  -0.000001   0.000000  -0.000005
     8  H   -0.000000   0.000001   0.000003  -0.000001  -0.000002  -0.000000
     9  H   -0.000001   0.000001  -0.000000   0.000005  -0.000008  -0.000003
    10  H   -0.000001  -0.000000  -0.000000   0.000000   0.000001   0.000001
    11  N    0.000006  -0.000022  -0.000885   0.000006   0.000002   0.000001
    12  N    0.000011   0.000261   0.000160   0.000000  -0.000000   0.000001
    13  C    0.000028  -0.000165   0.000309  -0.000008   0.000000   0.000001
    14  C   -0.000000   0.000003  -0.000021   0.000004  -0.000001   0.000000
    15  H    0.000000   0.000000  -0.000002  -0.000000  -0.000000   0.000000
    16  H   -0.000000   0.000000  -0.000001  -0.000000  -0.000000   0.000000
    17  H    0.000000   0.000000  -0.000001  -0.000000  -0.000000  -0.000000
    18  S    0.000003  -0.000077  -0.000130   0.000001  -0.000000   0.000000
    19  O    0.000000   0.000000  -0.000001  -0.000000  -0.000000  -0.000000
    20  O   -0.000000   0.000001   0.000000   0.000000  -0.000000  -0.000000
    21  C    0.000001  -0.000029  -0.000008   0.000000  -0.000000   0.000000
    22  C    0.000000  -0.000000  -0.000000   0.000000  -0.000000   0.000000
    23  H   -0.000000   0.000002   0.000001  -0.000000   0.000000  -0.000000
    24  H    0.000000  -0.000008  -0.000001   0.000000  -0.000000   0.000000
    25  C    0.000000  -0.000000  -0.000000   0.000000  -0.000000   0.000000
    26  H    0.000000  -0.000000  -0.000000   0.000000  -0.000000   0.000000
    27  H    0.000000  -0.000000  -0.000000   0.000000  -0.000000   0.000000
    28  C   -0.000000   0.000000   0.000000  -0.000000   0.000000  -0.000000
    29  H    0.000000  -0.000000  -0.000000   0.000000  -0.000000   0.000000
    30  H   -0.000000   0.000000   0.000000  -0.000000   0.000000  -0.000000
    31  H    0.000000  -0.000000  -0.000000   0.000000  -0.000000   0.000000
    32  C    0.000000  -0.000000  -0.000000   0.000000  -0.000000   0.000000
    33  C   -0.000000   0.000000   0.000000  -0.000000   0.000000  -0.000000
    34  H    0.000000  -0.000000  -0.000000   0.000000  -0.000000   0.000000
    35  H   -0.000000   0.000000   0.000000  -0.000000   0.000000  -0.000000
    36  H    0.000000  -0.000000  -0.000000   0.000000  -0.000000   0.000000
    37  H   -0.000000   0.000000   0.000000  -0.000000   0.000000  -0.000000
    38  H   -0.000000   0.000000   0.000000  -0.000000   0.000000  -0.000000
               7          8          9         10         11         12
     1  C   -0.000011  -0.000000  -0.000001  -0.000001   0.000006   0.000011
[...]
 00008022,0.00001103,0.00000509,-0.00012768,-0.00013697,0.00010967,-0.0
 0004874,0.00003686,-0.00003993,-0.00002418,-0.00001777,0.00112407,0.00
 117019,0.00152753,0.00008930,0.00018562,-0.00014720,-0.00004903,0.0000
 0771,-0.00008728,-0.00579423,-0.01447807,0.03134312,0.00009017,-0.0003
 0488,-0.00089846,0.00156608,0.00048430,-0.00017681,-0.00640967,-0.0017
 3079,0.00075977,-0.05142386,-0.00779136,0.02424622,0.00071110,0.004619
 58,-0.01131892,0.05779525,0.00000138,-0.00000044,-0.00000140,0.0000035
 7,-0.00000097,0.00000077,-0.00000166,-0.00000184,0.00000219,0.00000152
 ,-0.00000078,-0.00000071,-0.00000047,0.00000227,-0.00000096,-0.0000025
 2,-0.00000183,0.,0.00000147,-0.00000049,0.00000153,-0.00000009,-0.0000
 0038,0.00000068,-0.00000070,0.00000014,0.00000046,-0.00000009,0.000000
 61,0.00000040,-0.00000519,-0.00000490,0.00000037,-0.00001009,-0.000006
 32,-0.00000575,0.00001097,0.00001581,-0.00000911,0.00000087,0.00000247
 ,0.00000108,0.00000132,0.00000055,0.00000097,0.00000106,-0.00000052,-0
 .00000030,-0.00000135,0.00000052,0.,0.00006621,0.00000602,0.00004512,-
 0.00001797,-0.00002045,-0.00002772,-0.00002242,-0.00000492,-0.00002677
 ,0.00002149,0.00004622,-0.00000735,0.00006487,-0.00009063,-0.00026289,
 0.00005390,-0.00000914,-0.00000277,-0.00002124,0.00000191,0.00000223,0
 .00020204,0.00036748,0.00130064,0.00010980,0.00008006,-0.00008615,-0.0
 0005219,-0.00003131,-0.00001339,-0.00107960,-0.00380943,0.00683303,-0.
 00031353,-0.00029702,-0.00059984,-0.00008190,0.00046518,-0.00070440,-0
 .00183343,0.00061120,-0.00045675,-0.00802685,-0.08808898,0.09207991,0.
 00224257,0.00886997,-0.02345306,0.01306954,0.09324843,0.00000113,0.000
 01155,-0.00000012,-0.00000479,-0.00000247,-0.00000097,0.00000590,0.000
 00652,-0.00000502,-0.00000542,-0.00000140,0.00000279,0.00000220,-0.000
 00532,0.00000215,0.00000618,0.00000069,0.00000092,-0.00000034,-0.00000
 135,-0.00000319,-0.00000045,0.00000003,-0.00000126,0.00000041,-0.00000
 084,-0.00000089,0.00000146,-0.00000126,-0.00000147,0.00000615,-0.00001
 695,0.00000527,0.00001640,-0.00001227,0.00001557,0.00000415,0.00001709
 ,0.00000134,-0.00000145,0.00000118,-0.00000370,-0.00000296,-0.00000219
 ,-0.00000131,-0.00000247,-0.00000061,0.00000128,0.00000211,-0.00000128
 ,0.00000023,-0.00009707,-0.00002471,-0.00006485,0.00003787,0.00001959,
 0.00003645,0.00003973,0.00000427,0.00004308,-0.00000783,-0.00001530,-0
 .00001904,0.00004701,0.00004351,0.00039901,-0.00004781,0.00001383,-0.0
 0001090,0.00002142,0.00001838,0.00000947,-0.00050768,-0.00071554,0.000
 60694,-0.00013809,-0.00013365,-0.00002885,0.00006590,0.00005912,-0.000
 01614,0.00109058,0.00201065,-0.00477800,0.00032685,0.00053722,0.000345
 31,0.00020782,-0.00024214,0.00015876,0.00087486,-0.00038294,0.00095426
 ,0.02452498,0.09169471,-0.27112469,0.00163280,0.00798972,-0.02082145,-
 0.02641485,-0.09795778,0.29583347,0.00000339,-0.00000079,-0.00000235,0
 .00001471,-0.00000964,-0.00000023,-0.00001081,-0.00000618,0.00000531,0
 .00000525,-0.00000170,-0.00000112,-0.00000186,0.00000677,-0.00000174,-
 0.00000619,-0.00000518,0.00000150,0.00000420,-0.00000341,0.00000230,-0
 .00000131,-0.00000138,0.00000100,-0.00000223,0.00000033,0.00000065,-0.
 00000076,0.00000138,0.00000035,-0.00003033,-0.00002015,0.00000820,-0.0
 0003186,-0.00002788,-0.00000440,0.00003163,0.00004612,-0.00001187,0.00
 000321,0.00001669,-0.00000343,0.00000322,0.00000242,-0.00000073,0.0000
 0004,-0.00000169,0.00000166,-0.00000336,-0.00000013,0.00000054,0.00020
 976,0.00012615,-0.00008420,-0.00006565,-0.00010944,-0.00003809,-0.0000
 2951,-0.00006400,0.00005045,-0.00004691,0.00005530,0.00011837,-0.00009
 564,-0.00011338,-0.00002748,0.00015722,-0.00001502,-0.00008387,0.00002
 313,0.00000220,-0.00000155,0.00165450,0.00113375,0.00114799,-0.0000646
 4,0.00003718,0.00003030,-0.00004486,-0.00005207,-0.00001069,-0.0206387
 1,0.02582945,-0.00280282,-0.00024671,0.00002211,-0.00035811,-0.0063356
 1,-0.00207105,0.00095895,0.00143039,0.00001086,0.00018149,-0.12945554,
 0.12274864,-0.00745095,0.00714366,-0.01121649,0.00082489,0.00192230,-0
 .00349449,-0.00027085,0.14397364,-0.00000322,-0.00000105,0.00000193,-0
 .00000125,0.00000072,-0.00000077,0.00000755,0.00000218,-0.00000277,-0.
 00000250,0.00000024,0.00000069,0.00000021,-0.00000325,0.00000125,0.000
 00354,0.00000308,-0.00000050,-0.00000146,0.00000088,-0.00000148,0.0000
 0046,0.00000085,-0.00000071,0.00000113,-0.00000033,-0.00000046,-0.0000
 0060,-0.00000053,-0.00000043,0.00001725,0.00000304,-0.00000188,0.00000
 629,0.00001219,-0.00000140,0.00000112,0.00000672,0.00000039,-0.0000028
 8,-0.00001044,0.00000273,-0.00000168,-0.00000145,0.00000006,0.00000011
 ,0.00000082,-0.00000095,0.00000189,-0.00000016,-0.00000040,-0.00003996
 ,-0.00009265,-0.00000055,0.00001008,0.00001852,0.00000618,0.00001085,0
 .00002549,-0.00001650,0.00000066,0.00004084,0.00000998,0.00000504,0.00
 008172,0.00017483,0.00001444,-0.00000824,-0.00002095,0.00000291,0.0000
 0877,0.00000053,0.00004981,0.00067996,0.00018490,0.00001992,-0.0000076
 1,-0.00000479,0.00006982,0.00003124,0.00000282,-0.00615698,0.00802882,
 -0.00057799,0.00020324,-0.00000774,-0.00000337,-0.00231629,0.00049481,
 -0.00009573,0.00070011,0.00044768,-0.00030910,0.12327544,-0.23274592,0
 .01319570,0.01150901,-0.01867141,0.00117640,0.00657892,-0.01039190,0.0
 0068016,-0.13158867,0.25235607,-0.00000016,0.00000200,0.00000029,-0.00
 000056,0.00000063,0.00000027,0.00000456,0.00000160,-0.00000123,-0.0000
 0159,-0.00000057,0.00000023,0.00000065,-0.00000151,0.00000024,0.000001
 59,0.00000030,-0.00000005,-0.00000012,-0.00000018,-0.00000098,0.000000
 27,0.00000023,0.00000005,0.00000022,-0.00000023,0.,0.00000016,-0.00000
 017,-0.00000024,0.00000769,-0.00000469,-0.00000104,0.00000361,0.000000
 09,0.00000231,0.00000604,0.00001353,-0.00000743,-0.00000127,-0.0000035
 7,0.00000230,-0.00000077,-0.00000051,0.00000066,0.00000059,0.00000012,
 -0.00000055,0.00000037,0.00000030,-0.00000034,-0.00001317,-0.00005433,
 0.00005649,0.00001168,0.00001527,-0.00000566,-0.00000600,0.00001545,-0
 .00003366,0.00004839,0.00003417,-0.00004978,-0.00001864,-0.00010448,0.
 00000746,-0.00000629,-0.00000792,0.00000928,-0.00000181,0.00000846,-0.
 00000024,-0.00045632,0.00007798,0.00009682,0.00002179,0.00001706,-0.00
 003410,-0.00001860,0.00000799,-0.00000952,0.00367708,-0.00435671,0.000
 06176,-0.00000799,0.00018346,-0.00013470,0.00139759,-0.00030710,0.0005
 8396,-0.00014871,-0.00073316,0.00013024,-0.00790966,0.01345784,-0.0523
 5864,0.01328776,-0.02049851,0.00093616,-0.01789936,0.02578525,-0.00122
 609,0.00890865,-0.01129702,0.05326262,0.00000586,-0.00001686,0.0000012
 9,0.00001602,-0.00000051,-0.00000185,-0.00002632,-0.00002076,0.0000112
 8,0.00001561,0.00000212,-0.00000346,-0.00000556,0.00001813,-0.00000372
 ,-0.00001873,-0.00000727,0.00000442,0.00000452,-0.00000201,0.00000157,
 -0.00000083,-0.00000254,0.00000112,-0.00000386,0.00000152,0.00000060,-
 0.00000297,0.00000320,0.00000034,-0.00004904,0.00002342,0.00000064,-0.
 00004801,0.00000161,-0.00000145,-0.00000018,-0.00002724,0.00000184,0.0
 0000728,0.00001651,-0.00000629,0.00000835,0.00000578,0.00000078,0.0000
 0322,-0.00000177,0.00000053,-0.00000626,0.00000126,0.00000005,0.000273
 00,0.00014952,-0.00004430,-0.00010433,-0.00006405,-0.00002502,-0.00009
 114,-0.00004494,0.00004559,-0.00002795,-0.00005518,0.00003092,0.000017
 88,-0.00011770,-0.00027582,0.00002584,-0.00000384,-0.00000112,0.000001
 13,-0.00000843,-0.00000153,-0.00044676,-0.00005992,0.00061349,0.000003
 09,0.00002353,0.00001164,-0.00009085,-0.00005338,0.00001725,0.00085209
 ,-0.00160845,-0.00236410,-0.00004177,-0.00003450,-0.00008731,0.0004692
 9,0.00000758,0.00004512,0.00013307,0.00008797,0.00007733,-0.00810886,-
 0.00076543,0.00205058,-0.30274261,-0.05999746,0.04340292,0.00013206,0.
 00023333,-0.00034085,0.00049347,-0.00028090,-0.00003796,0.32621126,0.0
 0000330,-0.00001491,0.00000367,0.00000682,0.00000112,-0.00000219,-0.00
 002150,-0.00001449,0.00000731,0.00001198,0.00000244,-0.00000211,-0.000
 00455,0.00001305,-0.00000204,-0.00001386,-0.00000267,0.00000397,0.0000
 0133,-0.00000008,-0.00000164,-0.00000061,-0.00000160,0.00000023,-0.000
 00215,0.00000128,-0.00000016,-0.00000239,0.00000184,-0.00000035,-0.000
 03127,0.00002741,-0.00000169,-0.00003134,0.00001531,0.00000487,-0.0000
 0833,-0.00004378,0.00000782,0.00000467,0.00000936,-0.00000602,0.000006
 09,0.00000469,0.00000029,0.00000206,-0.00000106,0.00000025,-0.00000406
 ,0.00000092,0.00000023,0.00021393,0.00011172,-0.00006035,-0.00008523,-
 0.00003874,-0.00000677,-0.00007010,-0.00003028,0.00004969,0.00001224,-
 0.00006926,0.00001117,-0.00001119,-0.00021528,-0.00036569,0.00002242,-
 0.00000663,0.00000214,-0.00000182,-0.00000887,-0.00000289,-0.00118092,
 0.00009822,0.00053677,0.00000183,0.00001961,0.00002043,-0.00011230,-0.
 00007918,0.00003009,-0.00034514,-0.00287853,-0.00409368,-0.00002517,-0
 .00000298,-0.00008539,-0.00020937,0.00033485,-0.00003334,0.00041040,0.
 00007580,-0.00012621,-0.02205655,-0.00525401,0.00549490,-0.05970893,-0
 .06329309,0.01086264,0.00058418,0.00082850,0.00019884,0.00029178,0.000
 28651,0.00082760,0.06691485,0.06560894,0.00000140,-0.00000914,0.000002
 60,0.00000333,0.00000054,-0.00000178,-0.00001377,-0.00000882,0.0000040
 0,0.00000691,0.00000174,-0.00000095,-0.00000327,0.00000753,-0.00000086
 ,-0.00000799,-0.00000091,0.00000239,0.00000073,0.00000022,-0.00000126,
 -0.00000046,-0.00000082,-0.00000012,-0.00000104,0.00000074,-0.00000024
 ,-0.00000166,0.00000099,-0.00000024,-0.00001862,0.00002048,-0.00000106
 ,-0.00001828,0.00001319,0.00000442,-0.00000877,-0.00003572,0.00000899,
 0.00000241,0.00000431,-0.00000459,0.00000359,0.00000271,0.00000008,0.0
 0000066,-0.00000091,0.00000011,-0.00000207,0.00000029,0.00000051,0.000
 13567,0.00007138,-0.00007370,-0.00005862,-0.00001888,0.00000586,-0.000
 03803,-0.00001661,0.00005291,0.00002384,-0.00005957,0.00000707,-0.0000
 4618,-0.00025810,-0.00040922,0.00001377,0.00000255,-0.00000377,-0.0000
 0257,-0.00000430,0.00000133,-0.00119096,-0.00048045,0.00094119,0.00000
 796,0.00000735,0.00000540,-0.00012151,-0.00008834,0.00002726,-0.000613
 33,-0.00309348,-0.00365153,0.00001615,0.00007739,-0.00002704,0.0003339
 5,0.00006561,-0.00016864,-0.00016317,-0.00032897,0.00026329,-0.0241224
 3,-0.00419998,0.00438481,0.04390764,0.01102319,-0.05630483,0.00008394,
 0.00093834,0.00065385,0.00066309,0.00050670,0.00078297,-0.04655432,-0.
 00930895,0.05808735,-0.00000092,0.00000880,-0.00000170,-0.00000818,0.0
 0000019,0.00000124,0.00000873,0.00000925,-0.00000416,-0.00000620,-0.00
 000124,0.00000129,0.00000281,-0.00000705,0.00000110,0.00000701,0.00000
 203,-0.00000191,-0.00000168,0.00000075,0.,0.00000018,0.00000072,-0.000
 00019,0.00000128,-0.00000051,-0.00000004,0.00000197,-0.00000131,0.0000
 0010,0.00001551,-0.00001312,0.00000075,0.00002030,-0.00000644,0.000001
 91,0.00000003,0.00000940,-0.00000049,-0.00000182,-0.00000245,0.0000012
 8,-0.00000303,-0.00000209,-0.00000046,-0.00000164,0.00000043,0.0000002
 9,0.00000201,-0.00000047,0.00000017,-0.00011784,-0.00003466,0.00001317
 ,0.00004264,0.00001844,0.00000846,0.00003841,0.00000988,-0.00000935,0.
 00000679,0.00000541,-0.00001536,0.00001914,0.00004310,0.00006627,-0.00
 001934,0.00000426,0.00000421,0.00000058,0.00000400,0.00000147,-0.00005
 470,0.00000770,-0.00012572,-0.00000289,-0.00001366,-0.00000030,0.00002
 442,0.00001902,-0.00000047,0.00152656,-0.00089204,0.00021364,0.0000258
 7,0.00002497,0.00005327,0.00000007,0.00044599,-0.00016236,-0.00006101,
 0.00002644,0.00008712,0.00581877,-0.01036437,0.00145069,-0.12871527,0.
 12258585,-0.00803114,0.00021728,0.00057480,0.00055010,-0.00008391,-0.0
 0216118,-0.00158017,-0.01581882,0.02763162,-0.00284242,0.13567182,-0.0
 0000235,-0.00000775,0.00000494,-0.00000390,0.00000410,-0.00000188,-0.0
 0000098,-0.00000272,-0.00000100,0.00000181,0.00000200,0.00000021,-0.00
 000148,0.00000108,0.00000088,-0.00000150,0.00000367,0.00000132,-0.0000
 0243,0.00000210,-0.00000387,0.00000049,0.00000046,-0.00000098,0.000000
 82,0.00000022,-0.00000085,-0.00000140,-0.00000017,-0.00000088,0.000010
 27,0.00002372,-0.00000542,0.00000166,0.00002988,0.00000571,-0.00001437
 ,-0.00003410,0.00000891,-0.00000163,-0.00001046,0.00000021,0.00000032,
 0.00000034,0.00000037,0.00000091,0.00000068,-0.00000124,0.00000094,0.0
 0000030,-0.00000034,0.00002093,-0.00004949,-0.00000999,-0.00001023,0.0
 0003284,0.00001746,-0.00001648,0.00002650,-0.00000253,0.00001763,-0.00
 002049,-0.00002177,0.00001955,-0.00000974,0.00006508,-0.00001188,-0.00
 001118,0.00000834,-0.00000791,-0.00000243,-0.00000427,-0.00025295,0.00
 046011,-0.00010012,0.00000596,-0.00000556,-0.00000383,0.00001751,0.000
 01218,0.00000227,0.00121573,0.00058581,0.00068591,0.00008529,-0.000006
 19,0.00008164,-0.00122201,0.00013294,-0.00007253,-0.00004520,-0.000062
 36,-0.00004040,0.01218578,-0.01963131,0.00132435,0.12247499,-0.2389896
 9,0.01401722,-0.00010077,0.00100469,0.00001162,-0.00216587,-0.00163353
 ,-0.00367845,-0.00456284,0.00816434,-0.00068382,-0.13380909,0.25985357
 ,-0.00000057,-0.00000414,-0.00000092,0.00000182,0.00000051,0.00000066,
 -0.00000283,-0.00000159,0.00000201,0.00000198,0.00000052,-0.00000119,-
 0.00000043,0.00000174,-0.00000102,-0.00000192,-0.00000063,-0.00000102,
 0.00000004,0.00000037,0.00000261,0.00000007,-0.00000007,0.00000057,-0.
 00000017,0.00000038,0.00000050,-0.00000024,0.00000044,0.00000099,-0.00
 000453,0.00000405,-0.00000100,-0.00000533,0.00000048,-0.00000739,-0.00
 000231,-0.00000599,0.00000185,0.00000121,0.00000205,0.00000046,0.00000
 100,0.00000069,0.,0.00000036,0.00000033,-0.00000003,-0.00000082,0.0000
 0030,0.00000004,0.00002175,0.00002480,0.00000625,-0.00001053,-0.000009
 90,-0.00000857,-0.00000739,-0.00000756,-0.00000141,-0.00001024,-0.0000
 0869,0.00001613,0.00001340,0.00004512,0.00003814,0.00000547,0.00000199
 ,0.00000698,-0.00000272,-0.00000732,-0.00000306,0.00006534,0.00023209,
 -0.00017971,-0.00000528,-0.00000481,-0.00000130,0.00001710,0.00000566,
 -0.00000011,0.00100919,0.00059214,0.00050114,0.00002740,-0.00003611,0.
 00002385,-0.00046965,0.00034008,0.00025550,-0.00016571,0.00009815,-0.0
 0000813,0.01366321,-0.02133390,0.00120133,-0.00811749,0.01417145,-0.05
 025026,0.00076193,0.00061590,0.00074293,-0.00212960,-0.00355801,-0.002
 82539,0.00312822,-0.00537165,-0.00078840,0.01037685,-0.01179174,0.0517
 4188,-0.00000169,0.00000649,0.00000010,-0.00000607,0.00000020,-0.00000
 009,0.00000798,0.00000616,-0.00000428,-0.00000550,-0.00000052,0.000001
 61,0.00000152,-0.00000604,0.00000162,0.00000625,0.00000258,-0.00000092
 ,-0.00000131,0.00000060,-0.00000148,0.00000021,0.00000080,-0.00000068,
 0.00000129,-0.00000059,-0.00000039,0.00000089,-0.00000111,-0.00000041,
 0.00001509,-0.00000445,0.00000006,0.00001697,0.00000233,0.00000517,-0.
 00000417,0.00000074,0.00000303,-0.00000261,-0.00000646,0.00000088,-0.0
 0000277,-0.00000211,-0.00000024,-0.00000146,0.00000012,-0.00000016,0.0
 0000237,-0.00000066,0.00000021,-0.00009306,-0.00004703,-0.00001834,0.0
 0003318,0.00002803,0.00001918,0.00003366,0.00001944,0.00000731,0.00000
 570,-0.00000437,-0.00001311,-0.00001621,0.00003497,0.00007389,-0.00002
 194,0.00000790,-0.00000870,0.00000364,0.00000756,0.00000475,-0.0000495
 5,-0.00013052,-0.00007545,-0.00001138,-0.00003405,0.00000820,0.0000274
 6,0.00001382,0.00000577,0.00092611,0.00101641,-0.00099574,-0.00002189,
 0.00002950,0.00016077,-0.00004000,0.00009223,-0.00000571,-0.00006339,-
 0.00044114,0.00026589,-0.00004143,0.00454922,-0.01023682,-0.05205211,-
 0.00800064,0.02144092,-0.00010451,-0.00169489,-0.00162312,0.00012267,0
 .00006780,0.00073048,-0.00103818,-0.01219273,0.03062444,0.00144507,0.0
 0617469,-0.01815857,0.05092920,-0.00000181,-0.00000086,-0.00000081,0.0
 0000013,-0.00000002,0.00000091,0.00000281,0.00000194,-0.00000007,-0.00
 000103,0.00000009,-0.00000078,0.00000059,-0.00000178,-0.00000043,0.000
 00184,0.00000050,-0.00000173,-0.00000058,0.00000032,0.00000169,0.00000
 028,0.00000050,0.00000054,0.00000053,0.00000006,0.00000050,0.00000014,
 -0.00000010,0.00000088,0.00000468,-0.00000190,-0.00000133,0.00000329,-
 0.00000085,-0.00000571,-0.00000019,0.00000365,-0.00000005,-0.00000037,
 -0.00000110,0.00000259,-0.00000063,-0.00000018,-0.00000022,-0.00000009
 ,0.00000085,-0.00000015,0.00000028,0.00000013,-0.00000006,-0.00002542,
 -0.00000559,0.00002261,0.00000998,-0.00000060,-0.00000560,0.00000929,-
 0.00000136,-0.00001544,0.00000091,0.00000447,0.00000525,-0.00000344,0.
 00001969,0.00011560,-0.00000277,-0.00000062,0.00000719,0.00000292,-0.0
 0000326,-0.00000289,0.00017575,-0.00006190,-0.00019437,-0.00003394,-0.
 00001778,0.00000895,0.00001906,0.00001233,-0.00000586,0.00115730,0.000
 99135,-0.00029748,-0.00002234,-0.00000306,0.00015424,-0.00011350,-0.00
 006177,0.00016596,-0.00010366,-0.00005218,0.00054373,0.00180665,0.0094
 3691,-0.02329500,-0.00800061,-0.08672940,0.09383488,-0.00215159,-0.002
 78975,-0.00380068,0.00063749,0.00104506,0.00059979,0.00024564,-0.00365
 046,0.00585251,-0.00412336,-0.00986434,0.02600287,0.01050574,0.0917309
 9,0.00000249,0.00000068,0.00000134,0.00000055,-0.00000189,-0.00000182,
 -0.00000767,-0.00000281,0.00000040,0.00000237,0.00000020,0.00000098,-0
 .00000091,0.00000305,0.00000047,-0.00000279,-0.00000106,0.00000255,0.0
 0000068,-0.00000104,-0.00000247,-0.00000075,-0.00000085,-0.00000080,-0
 .00000086,0.00000006,-0.00000069,-0.00000019,0.00000008,-0.00000111,-0
 .00001341,0.00000146,0.00000364,-0.00000590,-0.00000246,0.00001197,-0.
 00000104,-0.00000999,0.00000583,0.00000156,0.00000663,-0.00000637,0.00
 000106,0.00000078,-0.00000094,-0.00000103,-0.00000114,0.00000121,-0.00
 000060,-0.00000060,0.00000045,0.00004706,0.00005786,-0.00009583,-0.000
 02097,-0.00001351,0.00002212,-0.00000464,-0.00001844,0.00006758,-0.000
 00805,-0.00003630,0.00000917,-0.00000090,-0.00002349,0.00001026,-0.000
 00068,0.00000375,-0.00001051,0.00001024,0.00000126,0.00000271,-0.00005
 256,-0.00025339,0.00033101,-0.00004544,-0.00003983,0.00000970,-0.00000
 990,-0.00000824,0.00000102,0.00102514,0.00094735,0.00062891,0.00013002
 ,0.00017665,0.00021624,-0.00007291,-0.00009516,-0.00006525,-0.00102177
 ,-0.00051332,0.00038189,0.00187914,0.00837647,-0.02168597,0.02139545,0
 .09358294,-0.27980937,-0.00163554,-0.00399179,-0.00170513,0.00037841,-
 0.00004953,0.00075556,0.00030159,0.00140823,-0.00379819,-0.00005717,0.
 00018947,-0.00046491,-0.02221008,-0.09969206,0.30518435\\-0.00001432,0
 .00000305,0.00000126,0.00002148,-0.00001035,-0.00000522,-0.00001025,0.
 00001271,0.00000417,0.00000433,0.00000246,-0.00000163,-0.00000393,-0.0
 0000520,0.00000173,0.00001038,0.00000204,-0.00000163,0.00000294,-0.000
 00009,0.00000054,0.00000111,-0.00000215,-0.00000059,0.00000057,0.00000
 200,-0.00000109,-0.00000109,0.00000058,0.00000078,-0.00000284,-0.00000
 163,-0.00001461,-0.00000574,0.00001978,0.00000127,-0.00000950,-0.00001
 918,0.00000738,0.00000235,-0.00000133,0.00000207,-0.00000204,-0.000001
 72,0.00000113,0.00000125,-0.00000183,-0.00000051,-0.00000031,-0.000001
 51,-0.00000260,-0.00000044,-0.00001509,-0.00000017,-0.00000086,0.00001
 403,0.00001272,0.00000208,0.00000503,-0.00001530,-0.00000228,0.0000036
 1,-0.00000274,0.00001214,-0.00000251,0.00000045,0.00000059,0.00000050,
 -0.00000007,0.00000114,0.00000251,0.00000155,-0.00000071,-0.00000224,0
 .00000314,-0.00000193,0.00000055,-0.00000076,-0.00000012,-0.00000138,-
 0.00000021,-0.00000328,-0.00000298,0.00000076,-0.00000346,0.00000342,-
 0.00000106,0.00000218,0.00000104,-0.00000028,-0.00000144,0.00000006,0.
 00000070,0.00000266,-0.00000064,0.00000305,-0.00000145,-0.00000197,-0.
 00000012,0.00000073,0.00000023,0.00000054,-0.00000026,0.00000011,0.000
 00036,-0.00000006,-0.00000062,0.00000169,0.00000033,-0.00000061,0.0000
 0181,0.00000007,-0.00000069,0.00000149\\\@
 The archive entry for this job was punched.


 IMAGINATION WILL OFTEN CARRY US TO WORLDS THAT NEVER WERE.
 BUT WITHOUT IT, WE GO NOWHERE. -- CARL SAGAN (COSMOS)
 Job cpu time:       0 days  2 hours 19 minutes 41.3 seconds.
 Elapsed time:       0 days  0 hours  1 minutes 37.6 seconds.
 File lengths (MBytes):  RWF=    962 Int=      0 D2E=      0 Chk=     14 Scr=      1
 Normal termination of Gaussian 16 at Fri Nov 21 13:59:14 2025.
