 Entering Gaussian System, Link 0=g16
 Initial command:
 /public/software/g16/l1.exe "/tmp/Gau-49337.inp" -scrdir="/tmp/"
 Entering Link 1 = /public/software/g16/l1.exe PID=     49338.
  
 Copyright (c) 1988-2021, Gaussian, Inc.  All Rights Reserved.
  
 This is part of the Gaussian(R) 16 program.  It is based on
 the Gaussian(R) 09 system (copyright 2009, Gaussian, Inc.),
 the Gaussian(R) 03 system (copyright 2003, Gaussian, Inc.),
 the Gaussian(R) 98 system (copyright 1998, Gaussian, Inc.),
 the Gaussian(R) 94 system (copyright 1995, Gaussian, Inc.),
 the Gaussian 92(TM) system (copyright 1992, Gaussian, Inc.),
 the Gaussian 90(TM) system (copyright 1990, Gaussian, Inc.),
 the Gaussian 88(TM) system (copyright 1988, Gaussian, Inc.),
 the Gaussian 86(TM) system (copyright 1986, Carnegie Mellon
 University), and the Gaussian 82(TM) system (copyright 1983,
 Carnegie Mellon University). Gaussian is a federally registered
 trademark of Gaussian, Inc.
  
 This software contains proprietary and confidential information,
 including trade secrets, belonging to Gaussian, Inc.
  
 This software is provided under written license and may be
 used, copied, transmitted, or stored only in accord with that
 written license.
  
 The following legend is applicable only to US Government
 contracts under FAR:
  
                    RESTRICTED RIGHTS LEGEND
  
 Use, reproduction and disclosure by the US Government is
 subject to restrictions as set forth in subparagraphs (a)
 and (c) of the Commercial Computer Software - Restricted
 Rights clause in FAR 52.227-19.
  
 Gaussian, Inc.
 340 Quinnipiac St., Bldg. 40, Wallingford CT 06492
  
  
 ---------------------------------------------------------------
 Warning -- This program may not be used in any manner that
 competes with the business of Gaussian, Inc. or will provide
 assistance to any competitor of Gaussian, Inc.  The licensee
 of this program is prohibited from giving any competitor of
 Gaussian, Inc. access to this program.  By using this program,
 the user acknowledges that Gaussian, Inc. is engaged in the
 business of creating and licensing software in the field of
 computational chemistry and represents and warrants to the
 licensee that it is not a competitor of Gaussian, Inc. and that
 it will not use this program in any manner prohibited above.
 ---------------------------------------------------------------
  

 Cite this work as:
 Gaussian 16, Revision C.02,
 M. J. Frisch, G. W. Trucks, H. B. Schlegel, G. E. Scuseria, 
 M. A. Robb, J. R. Cheeseman, G. Scalmani, V. Barone, 
 G. A. Petersson, H. Nakatsuji, X. Li, M. Caricato, A. V. Marenich, 
 J. Bloino, B. G. Janesko, R. Gomperts, B. Mennucci, H. P. Hratchian, 
 J. V. Ortiz, A. F. Izmaylov, J. L. Sonnenberg, D. Williams-Young, 
 F. Ding, F. Lipparini, F. Egidi, J. Goings, B. Peng, A. Petrone, 
 T. Henderson, D. Ranasinghe, V. G. Zakrzewski, J. Gao, N. Rega, 
 G. Zheng, W. Liang, M. Hada, M. Ehara, K. Toyota, R. Fukuda, 
 J. Hasegawa, M. Ishida, T. Nakajima, Y. Honda, O. Kitao, H. Nakai, 
 T. Vreven, K. Throssell, J. A. Montgomery, Jr., J. E. Peralta, 
 F. Ogliaro, M. J. Bearpark, J. J. Heyd, E. N. Brothers, K. N. Kudin, 
 V. N. Staroverov, T. A. Keith, R. Kobayashi, J. Normand, 
 K. Raghavachari, A. P. Rendell, J. C. Burant, S. S. Iyengar, 
 J. Tomasi, M. Cossi, J. M. Millam, M. Klene, C. Adamo, R. Cammi, 
 J. W. Ochterski, R. L. Martin, K. Morokuma, O. Farkas, 
 J. B. Foresman, and D. J. Fox, Gaussian, Inc., Wallingford CT, 2019.
 
 ******************************************
 Gaussian 16:  ES64L-G16RevC.02  7-Dec-2021
                21-Nov-2025 
 ******************************************
 %nprocshared=96
 Will use up to   96 processors via shared memory.
 %mem=50GB
 %chk=IM2.chk
 -------------------------
 # opt freq 6-31g(d) m062x
 -------------------------
 1/18=20,19=15,26=3,38=1/1,3;
 2/9=110,12=2,17=6,18=5,40=1/2;
 3/5=1,6=6,7=1,11=2,25=1,30=1,71=1,74=-55/1,2,3;
 4//1;
 5/5=2,38=5/2;
 6/7=2,8=2,9=2,10=2,28=1/1;
 7//1,2,3,16;
 1/18=20,19=15,26=3/3(2);
 2/9=110/2;
 99//99;
 2/9=110/2;
 3/5=1,6=6,7=1,11=2,25=1,30=1,71=1,74=-55/1,2,3;
 4/5=5,16=3,69=1/1;
 5/5=2,38=5/2;
 7//1,2,3,16;
 1/18=20,19=15,26=3/3(-5);
 2/9=110/2;
 6/7=2,8=2,9=2,10=2,19=2,28=1/1;
 99/9=1/99;
 -------------------
 Title Card Required
 -------------------
 Symbolic Z-matrix:
 Charge =  0 Multiplicity = 2
 C                    -2.76054  -0.89485  -1.51513 
 C                    -1.56472  -0.52056  -0.85409 
 C                    -1.57328  -0.35347   0.57064 
 C                    -2.72046  -0.55627   1.33969 
 C                    -3.87101  -0.92705   0.65721 
 C                    -3.88995  -1.09276  -0.75099 
 H                    -2.76498  -1.02138  -2.59235 
 H                    -2.71476  -0.42828   2.41677 
 H                    -4.78542  -1.09577   1.21644 
 H                    -4.81881  -1.38459  -1.22962 
 N                    -0.31942   0.03575   0.91758 
 N                    -0.35888  -0.25756  -1.36799 
 C                     0.48803  -0.00195  -0.27039 
 C                     0.09777   0.2775    2.28627 
 H                    -0.45746   1.12723   2.69606 
 H                    -0.08003  -0.61168   2.89682 
 H                     1.16265   0.49895   2.31295 
 S                     1.66828  -1.60846  -0.09165 
 O                     1.37258  -2.65195  -1.07955 
 O                     1.69093  -1.97636   1.33426 
 C                     3.1947   -0.72858  -0.46947 
 C                     2.91851   0.68557   0.03022 
 H                     3.32932  -0.76576  -1.5531 
 H                     4.0118   -1.2453    0.03709 
 C                     1.53542   1.10888  -0.50007 
 H                     2.95822   0.71235   1.12448 
 H                     3.68112   1.37421  -0.34145 
 C                     1.08239   2.48036   0.00146 
 H                     1.61821   1.15566  -1.59329 
 H                     0.99789   2.47562   1.09553 
 H                     1.87855   3.19686  -0.23978 
 C                    -0.2312    2.96266  -0.6143 
 C                    -0.58291   4.37696  -0.15997 
 H                    -1.04297   2.27743  -0.34179 
 H                    -0.15023   2.9289   -1.708 
 H                    -1.52443   4.71449  -0.60191 
 H                    -0.68726   4.42063   0.92942 
 H                     0.19974   5.08623  -0.44909 
 

 GradGradGradGradGradGradGradGradGradGradGradGradGradGradGradGradGradGrad
 Berny optimization.
 Initialization pass.
                           ----------------------------
                           !    Initial Parameters    !
                           ! (Angstroms and Degrees)  !
 --------------------------                            --------------------------
 ! Name  Definition              Value          Derivative Info.                !
 --------------------------------------------------------------------------------
 ! R1    R(1,2)                  1.4167         estimate D2E/DX2                !
 ! R2    R(1,6)                  1.3779         estimate D2E/DX2                !
 ! R3    R(1,7)                  1.0846         estimate D2E/DX2                !
 ! R4    R(2,3)                  1.4345         estimate D2E/DX2                !
 ! R5    R(2,12)                 1.3369         estimate D2E/DX2                !
 ! R6    R(3,4)                  1.3959         estimate D2E/DX2                !
 ! R7    R(3,11)                 1.3579         estimate D2E/DX2                !
 ! R8    R(4,5)                  1.3882         estimate D2E/DX2                !
 ! R9    R(4,8)                  1.0847         estimate D2E/DX2                !
 ! R10   R(5,6)                  1.418          estimate D2E/DX2                !
 ! R11   R(5,9)                  1.0851         estimate D2E/DX2                !
 ! R12   R(6,10)                 1.0849         estimate D2E/DX2                !
 ! R13   R(11,13)                1.4369         estimate D2E/DX2                !
 ! R14   R(11,14)                1.4511         estimate D2E/DX2                !
 ! R15   R(12,13)                1.4097         estimate D2E/DX2                !
 ! R16   R(13,18)                2.0015         estimate D2E/DX2                !
 ! R17   R(13,25)                1.5439         estimate D2E/DX2                !
 ! R18   R(14,15)                1.0946         estimate D2E/DX2                !
 ! R19   R(14,16)                1.0932         estimate D2E/DX2                !
 ! R20   R(14,17)                1.088          estimate D2E/DX2                !
 ! R21   R(18,19)                1.4671         estimate D2E/DX2                !
 ! R22   R(18,20)                1.4728         estimate D2E/DX2                !
 ! R23   R(18,21)                1.8019         estimate D2E/DX2                !
 ! R24   R(21,22)                1.5251         estimate D2E/DX2                !
 ! R25   R(21,23)                1.0926         estimate D2E/DX2                !
 ! R26   R(21,24)                1.0914         estimate D2E/DX2                !
 ! R27   R(22,25)                1.5406         estimate D2E/DX2                !
 ! R28   R(22,26)                1.0953         estimate D2E/DX2                !
 ! R29   R(22,27)                1.0927         estimate D2E/DX2                !
 ! R30   R(25,28)                1.529          estimate D2E/DX2                !
 ! R31   R(25,29)                1.0973         estimate D2E/DX2                !
 ! R32   R(28,30)                1.0973         estimate D2E/DX2                !
 ! R33   R(28,31)                1.0979         estimate D2E/DX2                !
 ! R34   R(28,32)                1.5288         estimate D2E/DX2                !
 ! R35   R(32,33)                1.5266         estimate D2E/DX2                !
 ! R36   R(32,34)                1.0967         estimate D2E/DX2                !
 ! R37   R(32,35)                1.0972         estimate D2E/DX2                !
 ! R38   R(33,36)                1.0935         estimate D2E/DX2                !
 ! R39   R(33,37)                1.0952         estimate D2E/DX2                !
 ! R40   R(33,38)                1.0951         estimate D2E/DX2                !
 ! A1    A(2,1,6)              118.102          estimate D2E/DX2                !
 ! A2    A(2,1,7)              119.8471         estimate D2E/DX2                !
 ! A3    A(6,1,7)              122.0502         estimate D2E/DX2                !
 ! A4    A(1,2,3)              119.2853         estimate D2E/DX2                !
 ! A5    A(1,2,12)             129.342          estimate D2E/DX2                !
 ! A6    A(3,2,12)             111.3607         estimate D2E/DX2                !
 ! A7    A(2,3,4)              122.3537         estimate D2E/DX2                !
 ! A8    A(2,3,11)             106.3573         estimate D2E/DX2                !
 ! A9    A(4,3,11)             131.2773         estimate D2E/DX2                !
 ! A10   A(3,4,5)              116.6851         estimate D2E/DX2                !
 ! A11   A(3,4,8)              121.7091         estimate D2E/DX2                !
 ! A12   A(5,4,8)              121.6057         estimate D2E/DX2                !
 ! A13   A(4,5,6)              122.0399         estimate D2E/DX2                !
 ! A14   A(4,5,9)              119.1187         estimate D2E/DX2                !
 ! A15   A(6,5,9)              118.8414         estimate D2E/DX2                !
 ! A16   A(1,6,5)              121.5325         estimate D2E/DX2                !
 ! A17   A(1,6,10)             119.7182         estimate D2E/DX2                !
 ! A18   A(5,6,10)             118.7492         estimate D2E/DX2                !
 ! A19   A(3,11,13)            107.4649         estimate D2E/DX2                !
 ! A20   A(3,11,14)            123.6542         estimate D2E/DX2                !
 ! A21   A(13,11,14)           128.5064         estimate D2E/DX2                !
 ! A22   A(2,12,13)            106.1559         estimate D2E/DX2                !
 ! A23   A(11,13,12)           108.1115         estimate D2E/DX2                !
 ! A24   A(11,13,18)           106.1766         estimate D2E/DX2                !
 ! A25   A(11,13,25)           119.0345         estimate D2E/DX2                !
 ! A26   A(12,13,18)           106.1563         estimate D2E/DX2                !
 ! A27   A(12,13,25)           114.9725         estimate D2E/DX2                !
 ! A28   A(18,13,25)           100.9966         estimate D2E/DX2                !
 ! A29   A(11,14,15)           109.6693         estimate D2E/DX2                !
 ! A30   A(11,14,16)           110.1518         estimate D2E/DX2                !
 ! A31   A(11,14,17)           109.7809         estimate D2E/DX2                !
 ! A32   A(15,14,16)           109.8661         estimate D2E/DX2                !
 ! A33   A(15,14,17)           109.2246         estimate D2E/DX2                !
 ! A34   A(16,14,17)           108.1226         estimate D2E/DX2                !
 ! A35   A(13,18,19)           113.0748         estimate D2E/DX2                !
 ! A36   A(13,18,20)           107.2197         estimate D2E/DX2                !
 ! A37   A(13,18,21)            95.0983         estimate D2E/DX2                !
 ! A38   A(19,18,20)           118.515          estimate D2E/DX2                !
 ! A39   A(19,18,21)           112.1396         estimate D2E/DX2                !
 ! A40   A(20,18,21)           108.1767         estimate D2E/DX2                !
 ! A41   A(18,21,22)           103.3367         estimate D2E/DX2                !
 ! A42   A(18,21,23)           107.2004         estimate D2E/DX2                !
 ! A43   A(18,21,24)           107.7998         estimate D2E/DX2                !
 ! A44   A(22,21,23)           112.2613         estimate D2E/DX2                !
 ! A45   A(22,21,24)           114.993          estimate D2E/DX2                !
 ! A46   A(23,21,24)           110.6075         estimate D2E/DX2                !
 ! A47   A(21,22,25)           107.7342         estimate D2E/DX2                !
 ! A48   A(21,22,26)           110.0865         estimate D2E/DX2                !
 ! A49   A(21,22,27)           110.2762         estimate D2E/DX2                !
 ! A50   A(25,22,26)           111.699          estimate D2E/DX2                !
 ! A51   A(25,22,27)           109.6536         estimate D2E/DX2                !
 ! A52   A(26,22,27)           107.4042         estimate D2E/DX2                !
 ! A53   A(13,25,22)           111.1089         estimate D2E/DX2                !
 ! A54   A(13,25,28)           113.3013         estimate D2E/DX2                !
 ! A55   A(13,25,29)           103.3003         estimate D2E/DX2                !
 ! A56   A(22,25,28)           113.5518         estimate D2E/DX2                !
 ! A57   A(22,25,29)           106.6731         estimate D2E/DX2                !
 ! A58   A(28,25,29)           108.1137         estimate D2E/DX2                !
 ! A59   A(25,28,30)           110.2424         estimate D2E/DX2                !
 ! A60   A(25,28,31)           107.364          estimate D2E/DX2                !
 ! A61   A(25,28,32)           113.9195         estimate D2E/DX2                !
 ! A62   A(30,28,31)           106.124          estimate D2E/DX2                !
 ! A63   A(30,28,32)           109.6801         estimate D2E/DX2                !
 ! A64   A(31,28,32)           109.1891         estimate D2E/DX2                !
 ! A65   A(28,32,33)           111.7384         estimate D2E/DX2                !
 ! A66   A(28,32,34)           109.803          estimate D2E/DX2                !
 ! A67   A(28,32,35)           109.1699         estimate D2E/DX2                !
 ! A68   A(33,32,34)           109.534          estimate D2E/DX2                !
 ! A69   A(33,32,35)           110.0091         estimate D2E/DX2                !
 ! A70   A(34,32,35)           106.4447         estimate D2E/DX2                !
 ! A71   A(32,33,36)           111.3505         estimate D2E/DX2                !
 ! A72   A(32,33,37)           110.7882         estimate D2E/DX2                !
 ! A73   A(32,33,38)           110.9046         estimate D2E/DX2                !
 ! A74   A(36,33,37)           107.9182         estimate D2E/DX2                !
 ! A75   A(36,33,38)           107.9841         estimate D2E/DX2                !
 ! A76   A(37,33,38)           107.7506         estimate D2E/DX2                !
 ! D1    D(6,1,2,3)             -0.4228         estimate D2E/DX2                !
 ! D2    D(6,1,2,12)          -179.0457         estimate D2E/DX2                !
 ! D3    D(7,1,2,3)            179.8537         estimate D2E/DX2                !
 ! D4    D(7,1,2,12)             1.2307         estimate D2E/DX2                !
 ! D5    D(2,1,6,5)              0.144          estimate D2E/DX2                !
 ! D6    D(2,1,6,10)          -179.7066         estimate D2E/DX2                !
 ! D7    D(7,1,6,5)            179.8611         estimate D2E/DX2                !
 ! D8    D(7,1,6,10)             0.0105         estimate D2E/DX2                !
 ! D9    D(1,2,3,4)              0.486          estimate D2E/DX2                !
 ! D10   D(1,2,3,11)          -178.3937         estimate D2E/DX2                !
 ! D11   D(12,2,3,4)           179.3425         estimate D2E/DX2                !
 ! D12   D(12,2,3,11)            0.4627         estimate D2E/DX2                !
 ! D13   D(1,2,12,13)         -177.1244         estimate D2E/DX2                !
 ! D14   D(3,2,12,13)            4.1653         estimate D2E/DX2                !
 ! D15   D(2,3,4,5)             -0.2374         estimate D2E/DX2                !
 ! D16   D(2,3,4,8)            179.9132         estimate D2E/DX2                !
 ! D17   D(11,3,4,5)           178.3322         estimate D2E/DX2                !
 ! D18   D(11,3,4,8)            -1.5172         estimate D2E/DX2                !
 ! D19   D(2,3,11,13)           -4.8265         estimate D2E/DX2                !
 ! D20   D(2,3,11,14)         -178.3283         estimate D2E/DX2                !
 ! D21   D(4,3,11,13)          176.4328         estimate D2E/DX2                !
 ! D22   D(4,3,11,14)            2.931          estimate D2E/DX2                !
 ! D23   D(3,4,5,6)             -0.0569         estimate D2E/DX2                !
 ! D24   D(3,4,5,9)            179.9484         estimate D2E/DX2                !
 ! D25   D(8,4,5,6)            179.7926         estimate D2E/DX2                !
 ! D26   D(8,4,5,9)             -0.202          estimate D2E/DX2                !
 ! D27   D(4,5,6,1)              0.1038         estimate D2E/DX2                !
 ! D28   D(4,5,6,10)           179.9558         estimate D2E/DX2                !
 ! D29   D(9,5,6,1)           -179.9016         estimate D2E/DX2                !
 ! D30   D(9,5,6,10)            -0.0495         estimate D2E/DX2                !
 ! D31   D(3,11,13,12)           7.4879         estimate D2E/DX2                !
 ! D32   D(3,11,13,18)        -106.0723         estimate D2E/DX2                !
 ! D33   D(3,11,13,25)         141.086          estimate D2E/DX2                !
 ! D34   D(14,11,13,12)       -179.4263         estimate D2E/DX2                !
 ! D35   D(14,11,13,18)         67.0135         estimate D2E/DX2                !
 ! D36   D(14,11,13,25)        -45.8283         estimate D2E/DX2                !
 ! D37   D(3,11,14,15)         -64.5573         estimate D2E/DX2                !
 ! D38   D(3,11,14,16)          56.4794         estimate D2E/DX2                !
 ! D39   D(3,11,14,17)         175.4324         estimate D2E/DX2                !
 ! D40   D(13,11,14,15)        123.3723         estimate D2E/DX2                !
 ! D41   D(13,11,14,16)       -115.591          estimate D2E/DX2                !
 ! D42   D(13,11,14,17)          3.3619         estimate D2E/DX2                !
 ! D43   D(2,12,13,11)          -7.0607         estimate D2E/DX2                !
 ! D44   D(2,12,13,18)         106.5129         estimate D2E/DX2                !
 ! D45   D(2,12,13,25)        -142.7551         estimate D2E/DX2                !
 ! D46   D(11,13,18,19)        113.5435         estimate D2E/DX2                !
 ! D47   D(11,13,18,20)        -18.9332         estimate D2E/DX2                !
 ! D48   D(11,13,18,21)       -129.7594         estimate D2E/DX2                !
 ! D49   D(12,13,18,19)         -1.3561         estimate D2E/DX2                !
 ! D50   D(12,13,18,20)       -133.8327         estimate D2E/DX2                !
 ! D51   D(12,13,18,21)        115.341          estimate D2E/DX2                !
 ! D52   D(25,13,18,19)       -121.625          estimate D2E/DX2                !
 ! D53   D(25,13,18,20)        105.8984         estimate D2E/DX2                !
 ! D54   D(25,13,18,21)         -4.9279         estimate D2E/DX2                !
 ! D55   D(11,13,25,22)         93.6786         estimate D2E/DX2                !
 ! D56   D(11,13,25,28)        -35.5654         estimate D2E/DX2                !
 ! D57   D(11,13,25,29)       -152.2871         estimate D2E/DX2                !
 ! D58   D(12,13,25,22)       -135.724          estimate D2E/DX2                !
 ! D59   D(12,13,25,28)         95.032          estimate D2E/DX2                !
 ! D60   D(12,13,25,29)        -21.6897         estimate D2E/DX2                !
 ! D61   D(18,13,25,22)        -21.9458         estimate D2E/DX2                !
 ! D62   D(18,13,25,28)       -151.1898         estimate D2E/DX2                !
 ! D63   D(18,13,25,29)         92.0885         estimate D2E/DX2                !
 ! D64   D(13,18,21,22)         29.6433         estimate D2E/DX2                !
 ! D65   D(13,18,21,23)        -89.1039         estimate D2E/DX2                !
 ! D66   D(13,18,21,24)        151.7949         estimate D2E/DX2                !
 ! D67   D(19,18,21,22)        147.102          estimate D2E/DX2                !
 ! D68   D(19,18,21,23)         28.3549         estimate D2E/DX2                !
 ! D69   D(19,18,21,24)        -90.7463         estimate D2E/DX2                !
 ! D70   D(20,18,21,22)        -80.3626         estimate D2E/DX2                !
 ! D71   D(20,18,21,23)        160.8903         estimate D2E/DX2                !
 ! D72   D(20,18,21,24)         41.7891         estimate D2E/DX2                !
 ! D73   D(18,21,22,25)        -47.6422         estimate D2E/DX2                !
 ! D74   D(18,21,22,26)         74.3809         estimate D2E/DX2                !
 ! D75   D(18,21,22,27)       -167.2846         estimate D2E/DX2                !
 ! D76   D(23,21,22,25)         67.5356         estimate D2E/DX2                !
 ! D77   D(23,21,22,26)       -170.4413         estimate D2E/DX2                !
 ! D78   D(23,21,22,27)        -52.1068         estimate D2E/DX2                !
 ! D79   D(24,21,22,25)       -164.8445         estimate D2E/DX2                !
 ! D80   D(24,21,22,26)        -42.8214         estimate D2E/DX2                !
 ! D81   D(24,21,22,27)         75.5131         estimate D2E/DX2                !
 ! D82   D(21,22,25,13)         47.0657         estimate D2E/DX2                !
 ! D83   D(21,22,25,28)        176.1765         estimate D2E/DX2                !
 ! D84   D(21,22,25,29)        -64.838          estimate D2E/DX2                !
 ! D85   D(26,22,25,13)        -73.9538         estimate D2E/DX2                !
 ! D86   D(26,22,25,28)         55.157          estimate D2E/DX2                !
 ! D87   D(26,22,25,29)        174.1426         estimate D2E/DX2                !
 ! D88   D(27,22,25,13)        167.1024         estimate D2E/DX2                !
 ! D89   D(27,22,25,28)        -63.7868         estimate D2E/DX2                !
 ! D90   D(27,22,25,29)         55.1987         estimate D2E/DX2                !
 ! D91   D(13,25,28,30)         66.7232         estimate D2E/DX2                !
 ! D92   D(13,25,28,31)       -178.0982         estimate D2E/DX2                !
 ! D93   D(13,25,28,32)        -57.072          estimate D2E/DX2                !
 ! D94   D(22,25,28,30)        -61.2644         estimate D2E/DX2                !
 ! D95   D(22,25,28,31)         53.9142         estimate D2E/DX2                !
 ! D96   D(22,25,28,32)        174.9404         estimate D2E/DX2                !
 ! D97   D(29,25,28,30)       -179.4213         estimate D2E/DX2                !
 ! D98   D(29,25,28,31)        -64.2427         estimate D2E/DX2                !
 ! D99   D(29,25,28,32)         56.7835         estimate D2E/DX2                !
 ! D100  D(25,28,32,33)       -175.7422         estimate D2E/DX2                !
 ! D101  D(25,28,32,34)         62.5111         estimate D2E/DX2                !
 ! D102  D(25,28,32,35)        -53.8308         estimate D2E/DX2                !
 ! D103  D(30,28,32,33)         60.1592         estimate D2E/DX2                !
 ! D104  D(30,28,32,34)        -61.5874         estimate D2E/DX2                !
 ! D105  D(30,28,32,35)       -177.9294         estimate D2E/DX2                !
 ! D106  D(31,28,32,33)        -55.7388         estimate D2E/DX2                !
 ! D107  D(31,28,32,34)       -177.4854         estimate D2E/DX2                !
 ! D108  D(31,28,32,35)         66.1726         estimate D2E/DX2                !
 ! D109  D(28,32,33,36)       -179.8534         estimate D2E/DX2                !
 ! D110  D(28,32,33,37)        -59.7389         estimate D2E/DX2                !
 ! D111  D(28,32,33,38)         59.8704         estimate D2E/DX2                !
 ! D112  D(34,32,33,36)        -57.9518         estimate D2E/DX2                !
 ! D113  D(34,32,33,37)         62.1626         estimate D2E/DX2                !
 ! D114  D(34,32,33,38)       -178.228          estimate D2E/DX2                !
 ! D115  D(35,32,33,36)         58.7194         estimate D2E/DX2                !
 ! D116  D(35,32,33,37)        178.8338         estimate D2E/DX2                !
 ! D117  D(35,32,33,38)        -61.5568         estimate D2E/DX2                !
 --------------------------------------------------------------------------------
 Trust Radius=3.00D-01 FncErr=1.00D-07 GrdErr=1.00D-06 EigMax=2.50D+02 EigMin=1.00D-04
 Number of steps in this run=    228 maximum allowed number of steps=    228.
 GradGradGradGradGradGradGradGradGradGradGradGradGradGradGradGradGradGrad

                          Input orientation:                          
 ---------------------------------------------------------------------
 Center     Atomic      Atomic             Coordinates (Angstroms)
 Number     Number       Type             X           Y           Z
 ---------------------------------------------------------------------
      1          6           0       -2.760544   -0.894848   -1.515128
      2          6           0       -1.564721   -0.520556   -0.854087
      3          6           0       -1.573275   -0.353470    0.570640
      4          6           0       -2.720461   -0.556265    1.339686
      5          6           0       -3.871010   -0.927045    0.657207
      6          6           0       -3.889949   -1.092757   -0.750992
      7          1           0       -2.764980   -1.021385   -2.592346
      8          1           0       -2.714759   -0.428282    2.416768
      9          1           0       -4.785421   -1.095768    1.216437
     10          1           0       -4.818812   -1.384591   -1.229624
     11          7           0       -0.319424    0.035746    0.917581
     12          7           0       -0.358884   -0.257558   -1.367987
     13          6           0        0.488031   -0.001948   -0.270388
     14          6           0        0.097766    0.277503    2.286271
     15          1           0       -0.457463    1.127226    2.696062
     16          1           0       -0.080031   -0.611675    2.896817
     17          1           0        1.162651    0.498953    2.312952
     18         16           0        1.668276   -1.608464   -0.091651
     19          8           0        1.372582   -2.651946   -1.079551
     20          8           0        1.690931   -1.976357    1.334258
     21          6           0        3.194702   -0.728584   -0.469471
     22          6           0        2.918505    0.685573    0.030221
     23          1           0        3.329322   -0.765761   -1.553103
     24          1           0        4.011800   -1.245299    0.037090
     25          6           0        1.535422    1.108883   -0.500072
     26          1           0        2.958223    0.712346    1.124482
     27          1           0        3.681122    1.374209   -0.341453
     28          6           0        1.082387    2.480355    0.001458
     29          1           0        1.618206    1.155661   -1.593288
     30          1           0        0.997888    2.475623    1.095530
     31          1           0        1.878553    3.196860   -0.239777
     32          6           0       -0.231195    2.962659   -0.614302
     33          6           0       -0.582913    4.376959   -0.159972
     34          1           0       -1.042966    2.277429   -0.341785
     35          1           0       -0.150228    2.928904   -1.707998
     36          1           0       -1.524428    4.714485   -0.601909
     37          1           0       -0.687259    4.420626    0.929420
     38          1           0        0.199744    5.086226   -0.449094
 ---------------------------------------------------------------------
                    Distance matrix (angstroms):
                    1          2          3          4          5
     1  C    0.000000
     2  C    1.416708   0.000000
     3  C    2.460310   1.434517   0.000000
     4  C    2.875101   2.479849   1.395920   0.000000
     5  C    2.439920   2.787151   2.369825   1.388171   0.000000
     6  C    1.377907   2.396816   2.767713   2.454885   1.418042
     7  H    1.084634   2.170944   3.445396   3.959696   3.433919
     8  H    3.959746   3.468371   2.171813   1.084674   2.163732
     9  H    3.406163   3.871802   3.359456   2.137829   1.085059
    10  H    2.134907   3.387727   3.851970   3.419145   2.160511
    11  N    3.569754   2.235854   1.357939   2.508710   3.688973
    12  N    2.489128   1.336901   2.289589   3.605241   4.109094
    13  C    3.591641   2.196235   2.253859   3.632358   4.551645
    14  C    4.898467   3.641787   2.476670   3.087652   4.456004
    15  H    5.208367   4.067526   2.820446   3.129706   4.475406
    16  H    5.170164   4.035082   2.776247   3.065876   4.414389
    17  H    5.655823   4.302103   3.353739   4.139963   5.487504
    18  S    4.706377   3.495300   3.538544   4.734645   5.631058
    19  O    4.512189   3.636125   4.084629   5.195920   5.786784
    20  O    5.394839   4.184194   3.724502   4.634336   5.700407
    21  C    6.048636   4.779468   4.894502   6.188045   7.157728
    22  C    6.094049   4.726104   4.641955   5.920709   7.006509
    23  H    6.091352   4.949788   5.358706   6.709098   7.533675
    24  H    6.956784   5.693596   5.680942   6.891652   7.913566
    25  C    4.847742   3.520126   3.598458   4.926456   5.891842
    26  H    6.500378   5.088399   4.687982   5.822640   7.038776
    27  H    6.929733   5.601053   5.605843   6.894434   7.957876
    28  C    5.334805   4.092017   3.925184   5.047135   6.047853
    29  H    4.835716   3.672485   4.140726   5.509724   6.287598
    30  H    5.683434   4.398302   3.858776   4.803965   5.956211
    31  H    6.315838   5.104184   5.017642   6.142604   7.132226
    32  C    4.699942   3.737456   3.768551   4.732583   5.476750
    33  C    5.862634   5.042955   4.887900   5.581647   6.293792
    34  H    3.793435   2.891955   2.834674   3.697453   4.389131
    35  H    4.633792   3.824752   4.241607   5.295364   5.857197
    36  H    5.816061   5.241266   5.202060   5.742917   6.238484
    37  H    6.207140   5.325985   4.868854   5.391815   6.229603
    38  H    6.758179   5.891805   5.811518   6.600381   7.345364
                    6          7          8          9         10
     6  C    0.000000
     7  H    2.158989   0.000000
     8  H    3.443443   5.044355   0.000000
     9  H    2.161633   4.312139   2.484748   0.000000
    10  H    1.084916   2.491416   4.317145   2.463280   0.000000
    11  N    4.099549   4.406570   2.863654   4.616792   5.183854
    12  N    3.680579   2.805670   4.461352   5.193850   4.602207
    13  C    4.537351   4.124660   4.202432   5.587163   5.567263
    14  C    5.196581   5.803734   2.902664   5.184200   6.268717
    15  H    5.347192   6.156982   2.755539   5.085490   6.382915
    16  H    5.296548   6.124355   2.684375   5.019832   6.330953
    17  H    6.119645   6.465266   3.988089   6.255001   7.202464
    18  S    5.620903   5.123660   5.186135   6.604859   6.589948
    19  O    5.498477   4.697520   5.820248   6.753832   6.321556
    20  O    6.022893   6.015425   4.793586   6.537007   7.021427
    21  C    7.099588   6.333257   6.583486   8.164525   8.076174
    22  C    7.080099   6.487955   6.218516   7.995671   8.107951
    23  H    7.271051   6.187559   7.239108   8.580694   8.178000
    24  H    7.942416   7.272470   7.181712   8.877180   8.922089
    25  C    5.860446   5.235371   5.379114   6.910857   6.864834
    26  H    7.326204   7.041000   5.929061   7.952468   8.391736
    27  H    7.973378   7.235857   7.194724   8.956012   8.980462
    28  C    6.169071   5.813109   5.358377   6.978252   7.160832
    29  H    6.008712   4.994994   6.112611   7.346423   6.929670
    30  H    6.327237   6.323660   4.895108   6.798244   7.358097
    31  H    7.206786   6.700043   6.426305   8.059514   8.174606
    32  C    5.463658   5.119114   5.182080   6.368941   6.350074
    33  C    6.419002   6.310307   5.854460   7.036072   7.230661
    34  H    4.430679   4.348854   4.210152   5.273754   5.334385
    35  H    5.574507   4.819106   5.904338   6.799656   6.374226
    36  H    6.272318   6.196855   6.080901   6.906482   6.960296
    37  H    6.593815   6.807000   5.462130   6.878075   7.445250
    38  H    7.415967   7.119412   6.864204   8.114365   8.225971
                   11         12         13         14         15
    11  N    0.000000
    12  N    2.304649   0.000000
    13  C    1.436898   1.409725   0.000000
    14  C    1.451140   3.721347   2.601328   0.000000
    15  H    2.091262   4.294629   3.311921   1.094640   0.000000
    16  H    2.096148   4.288556   3.275004   1.093168   1.790680
    17  H    2.087622   4.054219   2.716553   1.087995   1.779401
    18  S    2.770005   2.750156   2.001454   3.417292   4.446809
    19  O    3.751681   2.968883   2.908550   4.640645   5.646810
    20  O    2.874666   3.802386   2.814276   2.919656   4.012771
    21  C    3.854503   3.695561   2.809573   4.265834   5.177156
    22  C    3.419630   3.685887   2.543670   3.634949   4.324225
    23  H    4.478844   3.727654   3.209627   5.125636   5.998212
    24  H    4.601722   4.696036   3.749322   4.764179   5.716058
    25  C    2.569400   2.491753   1.543933   3.243725   3.766590
    26  H    3.353143   4.261023   2.925359   3.117861   3.782711
    27  H    4.402388   4.476392   3.477742   4.576914   5.139590
    28  C    2.963186   3.383609   2.566902   3.323012   3.385703
    29  H    3.363493   2.440662   2.089837   4.258389   4.765263
    30  H    2.778485   3.921737   2.874725   2.657031   2.549103
    31  H    4.020351   4.267550   3.488103   4.251443   4.284799
    32  C    3.304734   3.309704   3.069928   3.966308   3.791902
    33  C    4.480701   4.794605   4.509317   4.822133   4.328214
    34  H    2.671078   2.819081   2.746745   3.493945   3.300651
    35  H    3.910583   3.211337   3.326258   4.800585   4.768247
    36  H    5.064729   5.163969   5.138544   5.537139   4.988332
    37  H    4.400297   5.222194   4.730751   4.429760   3.744371
    38  H    5.257821   5.450913   5.099467   5.533212   5.098785
                   16         17         18         19         20
    16  H    0.000000
    17  H    1.765970   0.000000
    18  S    3.602930   3.237125   0.000000
    19  O    4.699393   4.634794   1.467050   0.000000
    20  O    2.727683   2.713684   1.472778   2.526705   0.000000
    21  C    4.697812   3.657589   1.801919   2.718757   2.659267
    22  C    4.346429   2.885951   2.615441   3.841940   3.208321
    23  H    5.607960   4.608725   2.367502   2.758764   3.533656
    24  H    5.032156   4.042229   2.374988   3.192337   2.757449
    25  C    4.136286   2.902426   2.751078   3.808694   3.592723
    26  H    3.758349   2.163811   2.920463   4.323249   2.979792
    27  H    5.345690   3.762265   3.606978   4.699369   4.242070
    28  C    4.392604   3.045554   4.131631   5.252933   4.691371
    29  H    5.115518   3.987168   3.146078   3.849952   4.287814
    30  H    3.733357   2.327335   4.305646   5.582413   4.511920
    31  H    5.308410   3.782545   4.812203   5.930410   5.410634
    32  C    5.012651   4.072035   4.977582   5.857674   5.646710
    33  C    5.872250   4.919479   6.395139   7.353577   6.911419
    34  H    4.445527   3.882699   4.744846   5.538764   5.327101
    35  H    5.809040   4.878150   5.148519   5.818916   6.058612
    36  H    6.534168   5.786840   7.101648   7.930014   7.671678
    37  H    5.437226   4.551466   6.552943   7.635456   6.836744
    38  H    6.613582   5.440511   6.863179   7.851900   7.435325
                   21         22         23         24         25
    21  C    0.000000
    22  C    1.525063   0.000000
    23  H    1.092595   2.186791   0.000000
    24  H    1.091443   2.218920   1.795674   0.000000
    25  C    2.475971   1.540559   2.800222   3.458781   0.000000
    26  H    2.161686   1.095309   3.080905   2.474837   2.195627
    27  H    2.162113   1.092678   2.484216   2.667295   2.167853
    28  C    3.870522   2.567761   4.242952   4.739539   1.528957
    29  H    2.701608   2.132497   2.573207   3.761919   1.097343
    30  H    4.188336   2.833361   4.791389   4.904001   2.168609
    31  H    4.146579   2.731476   4.419493   4.935603   2.131933
    32  C    5.038157   3.939688   5.240205   6.011175   2.563293
    33  C    6.358674   5.091408   6.610141   7.263608   3.909390
    34  H    5.197138   4.285516   5.463076   6.172829   2.835249
    35  H    5.108789   4.179840   5.077579   6.147502   2.759162
    36  H    7.205188   6.030868   7.382192   8.159483   4.730055
    37  H    6.598551   5.268844   7.013876   7.414858   4.236909
    38  H    6.540811   5.194916   6.727470   7.406508   4.195938
                   26         27         28         29         30
    26  H    0.000000
    27  H    1.763409   0.000000
    28  C    2.811725   2.845096   0.000000
    29  H    3.062425   2.422907   2.141292   0.000000
    30  H    2.636835   3.236940   1.097340   3.058895   0.000000
    31  H    3.033101   2.565473   1.097932   2.462979   1.754651
    32  C    4.273133   4.231293   1.528815   2.764768   2.161336
    33  C    5.255364   5.218375   2.529109   4.156450   2.773138
    34  H    4.539707   4.809658   2.162434   3.147453   2.504045
    35  H    4.753792   4.354740   2.154710   2.506972   3.063234
    36  H    6.252336   6.190560   3.485810   4.850176   3.775696
    37  H    5.203742   5.475265   2.785213   4.726439   2.578827
    38  H    5.405199   5.090250   2.787942   4.332500   3.136582
                   31         32         33         34         35
    31  H    0.000000
    32  C    2.155494   0.000000
    33  C    2.730900   1.526554   0.000000
    34  H    3.064479   1.096712   2.157019   0.000000
    35  H    2.518616   1.097208   2.163438   1.757253   0.000000
    36  H    3.743609   2.177498   1.093473   2.497741   2.510012
    37  H    3.073763   2.171806   1.095249   2.517098   3.077273
    38  H    2.536122   2.173140   1.095081   3.073302   2.522173
                   36         37         38
    36  H    0.000000
    37  H    1.769795   0.000000
    38  H    1.770399   1.769208   0.000000
 Stoichiometry    C14H19N2O2S(2)
 Framework group  C1[X(C14H19N2O2S)]
 Deg. of freedom   108
 Full point group                 C1      NOp   1
 Largest Abelian subgroup         C1      NOp   1
 Largest concise Abelian subgroup C1      NOp   1
                         Standard orientation:                         
 ---------------------------------------------------------------------
 Center     Atomic      Atomic             Coordinates (Angstroms)
 Number     Number       Type             X           Y           Z
 ---------------------------------------------------------------------
      1          6           0       -2.760544   -0.894848   -1.515128
      2          6           0       -1.564721   -0.520556   -0.854087
      3          6           0       -1.573275   -0.353470    0.570640
      4          6           0       -2.720461   -0.556265    1.339686
      5          6           0       -3.871010   -0.927045    0.657207
      6          6           0       -3.889949   -1.092757   -0.750992
      7          1           0       -2.764980   -1.021385   -2.592346
      8          1           0       -2.714759   -0.428282    2.416768
      9          1           0       -4.785421   -1.095768    1.216437
     10          1           0       -4.818812   -1.384591   -1.229624
     11          7           0       -0.319424    0.035746    0.917581
     12          7           0       -0.358884   -0.257558   -1.367987
     13          6           0        0.488031   -0.001948   -0.270388
     14          6           0        0.097766    0.277503    2.286271
     15          1           0       -0.457463    1.127226    2.696062
     16          1           0       -0.080031   -0.611675    2.896817
     17          1           0        1.162651    0.498953    2.312952
     18         16           0        1.668276   -1.608464   -0.091651
     19          8           0        1.372582   -2.651946   -1.079551
     20          8           0        1.690931   -1.976357    1.334258
     21          6           0        3.194702   -0.728584   -0.469471
     22          6           0        2.918505    0.685573    0.030221
     23          1           0        3.329322   -0.765761   -1.553103
     24          1           0        4.011800   -1.245299    0.037090
     25          6           0        1.535422    1.108883   -0.500072
     26          1           0        2.958223    0.712346    1.124482
     27          1           0        3.681122    1.374209   -0.341453
     28          6           0        1.082387    2.480355    0.001458
     29          1           0        1.618206    1.155661   -1.593288
     30          1           0        0.997888    2.475623    1.095530
     31          1           0        1.878553    3.196860   -0.239777
     32          6           0       -0.231195    2.962659   -0.614302
     33          6           0       -0.582913    4.376959   -0.159972
     34          1           0       -1.042966    2.277429   -0.341785
     35          1           0       -0.150228    2.928904   -1.707998
     36          1           0       -1.524428    4.714485   -0.601909
     37          1           0       -0.687259    4.420626    0.929420
     38          1           0        0.199744    5.086226   -0.449094
 ---------------------------------------------------------------------
 Rotational constants (GHZ):           0.4478777           0.3484213           0.2508501
 Standard basis: 6-31G(d) (6D, 7F)
 There are   327 symmetry adapted cartesian basis functions of A   symmetry.
 There are   327 symmetry adapted basis functions of A   symmetry.
   327 basis functions,   632 primitive gaussians,   327 cartesian basis functions
    75 alpha electrons       74 beta electrons
       nuclear repulsion energy      1738.5462702062 Hartrees.
 NAtoms=   38 NActive=   38 NUniq=   38 SFac= 1.00D+00 NAtFMM=   60 NAOKFM=F Big=F
 Integral buffers will be    131072 words long.
 Raffenetti 2 integral format.
 Two-electron integral symmetry is turned on.
 One-electron integrals computed using PRISM.
 NBasis=   327 RedAO= T EigKep=  3.91D-04  NBF=   327
 NBsUse=   327 1.00D-06 EigRej= -1.00D+00 NBFU=   327
 ExpMin= 1.17D-01 ExpMax= 2.19D+04 ExpMxC= 3.30D+03 IAcc=3 IRadAn=         5 AccDes= 0.00D+00
 Harris functional with IExCor= 1009 and IRadAn=       5 diagonalized for initial guess.
 HarFok:  IExCor= 1009 AccDes= 0.00D+00 IRadAn=         5 IDoV= 1 UseB2=F ITyADJ=14
 ICtDFT=  3500011 ScaDFX=  1.000000  1.000000  1.000000  1.000000
 FoFCou: FMM=F IPFlag=           0 FMFlag=      100000 FMFlg1=           0
         NFxFlg=           0 DoJE=T BraDBF=F KetDBF=T FulRan=T
         wScrn=  0.000000 ICntrl=       500 IOpCl=  0 I1Cent=   200000004 NGrid=           0
         NMat0=    1 NMatS0=      1 NMatT0=    0 NMatD0=    1 NMtDS0=    0 NMtDT0=    0
 Petite list used in FoFCou.
 Initial guess <Sx>= 0.0000 <Sy>= 0.0000 <Sz>= 0.5000 <S**2>= 0.7500 S= 0.5000
 Requested convergence on RMS density matrix=1.00D-08 within 128 cycles.
 Requested convergence on MAX density matrix=1.00D-06.
 Requested convergence on             energy=1.00D-06.
 No special actions if energy rises.
 Integral accuracy reduced to 1.0D-05 until final iterations.
 Initial convergence to 1.0D-05 achieved.  Increase integral accuracy.
 SCF Done:  E(UM062X) =  -1202.60414885     A.U. after   21 cycles
            NFock= 21  Conv=0.38D-08     -V/T= 2.0068
 <Sx>= 0.0000 <Sy>= 0.0000 <Sz>= 0.5000 <S**2>= 0.7719 S= 0.5109
 <L.S>=  0.00000000000    
 Annihilation of the first spin contaminant:
 S**2 before annihilation     0.7719,   after     0.7504

 **********************************************************************

            Population analysis using the SCF Density.

 **********************************************************************

 Orbital symmetries:
 Alpha Orbitals:
       Occupied  (A) (A) (A) (A) (A) (A) (A) (A) (A) (A) (A) (A)
                 (A) (A) (A) (A) (A) (A) (A) (A) (A) (A) (A) (A)
                 (A) (A) (A) (A) (A) (A) (A) (A) (A) (A) (A) (A)
                 (A) (A) (A) (A) (A) (A) (A) (A) (A) (A) (A) (A)
                 (A) (A) (A) (A) (A) (A) (A) (A) (A) (A) (A) (A)
                 (A) (A) (A) (A) (A) (A) (A) (A) (A) (A) (A) (A)
                 (A) (A) (A)
       Virtual   (A) (A) (A) (A) (A) (A) (A) (A) (A) (A) (A) (A)
                 (A) (A) (A) (A) (A) (A) (A) (A) (A) (A) (A) (A)
                 (A) (A) (A) (A) (A) (A) (A) (A) (A) (A) (A) (A)
                 (A) (A) (A) (A) (A) (A) (A) (A) (A) (A) (A) (A)
                 (A) (A) (A) (A) (A) (A) (A) (A) (A) (A) (A) (A)
                 (A) (A) (A) (A) (A) (A) (A) (A) (A) (A) (A) (A)
                 (A) (A) (A) (A) (A) (A) (A) (A) (A) (A) (A) (A)
                 (A) (A) (A) (A) (A) (A) (A) (A) (A) (A) (A) (A)
                 (A) (A) (A) (A) (A) (A) (A) (A) (A) (A) (A) (A)
                 (A) (A) (A) (A) (A) (A) (A) (A) (A) (A) (A) (A)
                 (A) (A) (A) (A) (A) (A) (A) (A) (A) (A) (A) (A)
                 (A) (A) (A) (A) (A) (A) (A) (A) (A) (A) (A) (A)
                 (A) (A) (A) (A) (A) (A) (A) (A) (A) (A) (A) (A)
                 (A) (A) (A) (A) (A) (A) (A) (A) (A) (A) (A) (A)
                 (A) (A) (A) (A) (A) (A) (A) (A) (A) (A) (A) (A)
                 (A) (A) (A) (A) (A) (A) (A) (A) (A) (A) (A) (A)
                 (A) (A) (A) (A) (A) (A) (A) (A) (A) (A) (A) (A)
                 (A) (A) (A) (A) (A) (A) (A) (A) (A) (A) (A) (A)
                 (A) (A) (A) (A) (A) (A) (A) (A) (A) (A) (A) (A)
                 (A) (A) (A) (A) (A) (A) (A) (A) (A) (A) (A) (A)
                 (A) (A) (A) (A) (A) (A) (A) (A) (A) (A) (A) (A)
 Beta  Orbitals:
       Occupied  (A) (A) (A) (A) (A) (A) (A) (A) (A) (A) (A) (A)
                 (A) (A) (A) (A) (A) (A) (A) (A) (A) (A) (A) (A)
                 (A) (A) (A) (A) (A) (A) (A) (A) (A) (A) (A) (A)
                 (A) (A) (A) (A) (A) (A) (A) (A) (A) (A) (A) (A)
                 (A) (A) (A) (A) (A) (A) (A) (A) (A) (A) (A) (A)
                 (A) (A) (A) (A) (A) (A) (A) (A) (A) (A) (A) (A)
                 (A) (A)
       Virtual   (A) (A) (A) (A) (A) (A) (A) (A) (A) (A) (A) (A)
                 (A) (A) (A) (A) (A) (A) (A) (A) (A) (A) (A) (A)
                 (A) (A) (A) (A) (A) (A) (A) (A) (A) (A) (A) (A)
                 (A) (A) (A) (A) (A) (A) (A) (A) (A) (A) (A) (A)
                 (A) (A) (A) (A) (A) (A) (A) (A) (A) (A) (A) (A)
                 (A) (A) (A) (A) (A) (A) (A) (A) (A) (A) (A) (A)
                 (A) (A) (A) (A) (A) (A) (A) (A) (A) (A) (A) (A)
                 (A) (A) (A) (A) (A) (A) (A) (A) (A) (A) (A) (A)
                 (A) (A) (A) (A) (A) (A) (A) (A) (A) (A) (A) (A)
                 (A) (A) (A) (A) (A) (A) (A) (A) (A) (A) (A) (A)
                 (A) (A) (A) (A) (A) (A) (A) (A) (A) (A) (A) (A)
                 (A) (A) (A) (A) (A) (A) (A) (A) (A) (A) (A) (A)
                 (A) (A) (A) (A) (A) (A) (A) (A) (A) (A) (A) (A)
                 (A) (A) (A) (A) (A) (A) (A) (A) (A) (A) (A) (A)
                 (A) (A) (A) (A) (A) (A) (A) (A) (A) (A) (A) (A)
                 (A) (A) (A) (A) (A) (A) (A) (A) (A) (A) (A) (A)
                 (A) (A) (A) (A) (A) (A) (A) (A) (A) (A) (A) (A)
                 (A) (A) (A) (A) (A) (A) (A) (A) (A) (A) (A) (A)
                 (A) (A) (A) (A) (A) (A) (A) (A) (A) (A) (A) (A)
                 (A) (A) (A) (A) (A) (A) (A) (A) (A) (A) (A) (A)
                 (A) (A) (A) (A) (A) (A) (A) (A) (A) (A) (A) (A)
                 (A)
 The electronic state is 2-A.
 Alpha  occ. eigenvalues --  -90.11235 -19.62735 -19.62577 -14.81464 -14.75449
 Alpha  occ. eigenvalues --  -10.64705 -10.60099 -10.59453 -10.59033 -10.58310
 Alpha  occ. eigenvalues --  -10.58010 -10.57873 -10.56424 -10.55921 -10.55891
 Alpha  occ. eigenvalues --  -10.55547 -10.55354 -10.54638 -10.53840  -8.43012
 Alpha  occ. eigenvalues --   -6.35163  -6.35084  -6.35007  -1.20862  -1.13447
 Alpha  occ. eigenvalues --   -1.10223  -1.00820  -0.96931  -0.94350  -0.90017
 Alpha  occ. eigenvalues --   -0.85712  -0.84967  -0.82728  -0.81669  -0.76721
 Alpha  occ. eigenvalues --   -0.75477  -0.69619  -0.68618  -0.68089  -0.67281
 Alpha  occ. eigenvalues --   -0.65459  -0.60421  -0.59291  -0.57901  -0.57706
 Alpha  occ. eigenvalues --   -0.55688  -0.54659  -0.53020  -0.52270  -0.51601
 Alpha  occ. eigenvalues --   -0.51109  -0.50460  -0.50096  -0.49226  -0.48647
 Alpha  occ. eigenvalues --   -0.48365  -0.47336  -0.46864  -0.45440  -0.44116
 Alpha  occ. eigenvalues --   -0.43145  -0.42303  -0.41676  -0.40697  -0.40566
 Alpha  occ. eigenvalues --   -0.39658  -0.38722  -0.38343  -0.37371  -0.37093
 Alpha  occ. eigenvalues --   -0.36074  -0.34805  -0.32338  -0.28848  -0.21661
 Alpha virt. eigenvalues --    0.03246   0.04538   0.08471   0.09851   0.11187
 Alpha virt. eigenvalues --    0.11516   0.12854   0.13566   0.14060   0.14476
 Alpha virt. eigenvalues --    0.15906   0.16863   0.17632   0.18535   0.19368
 Alpha virt. eigenvalues --    0.19727   0.20355   0.20499   0.20710   0.21614
 Alpha virt. eigenvalues --    0.21851   0.21914   0.22778   0.22832   0.23142
 Alpha virt. eigenvalues --    0.23619   0.24641   0.25076   0.27299   0.28092
 Alpha virt. eigenvalues --    0.28727   0.29841   0.30601   0.31612   0.32496
 Alpha virt. eigenvalues --    0.33356   0.34857   0.36988   0.38104   0.40696
 Alpha virt. eigenvalues --    0.41601   0.42635   0.44828   0.49606   0.51508
 Alpha virt. eigenvalues --    0.51733   0.53541   0.53949   0.54674   0.56015
 Alpha virt. eigenvalues --    0.57145   0.57994   0.58494   0.59146   0.59711
 Alpha virt. eigenvalues --    0.59981   0.61500   0.62390   0.62982   0.63293
 Alpha virt. eigenvalues --    0.64408   0.65122   0.65404   0.66754   0.67963
 Alpha virt. eigenvalues --    0.68330   0.69528   0.70436   0.71586   0.72454
 Alpha virt. eigenvalues --    0.72568   0.74365   0.75531   0.76875   0.79042
 Alpha virt. eigenvalues --    0.79535   0.81316   0.82006   0.83120   0.84720
 Alpha virt. eigenvalues --    0.85832   0.86357   0.87101   0.87658   0.88617
 Alpha virt. eigenvalues --    0.90098   0.90569   0.91112   0.91447   0.91890
 Alpha virt. eigenvalues --    0.92894   0.93228   0.93353   0.94902   0.95629
 Alpha virt. eigenvalues --    0.96226   0.96763   0.97641   0.97924   0.98331
 Alpha virt. eigenvalues --    0.99251   0.99757   1.00835   1.02282   1.02467
 Alpha virt. eigenvalues --    1.03113   1.04021   1.04376   1.05014   1.06587
 Alpha virt. eigenvalues --    1.08691   1.09809   1.11029   1.12304   1.12868
 Alpha virt. eigenvalues --    1.13604   1.15261   1.15656   1.18505   1.19679
 Alpha virt. eigenvalues --    1.19773   1.20790   1.21647   1.25224   1.27844
 Alpha virt. eigenvalues --    1.30455   1.31096   1.32456   1.33198   1.36277
 Alpha virt. eigenvalues --    1.36887   1.39824   1.41476   1.43096   1.43939
 Alpha virt. eigenvalues --    1.45610   1.48029   1.48607   1.49923   1.51802
 Alpha virt. eigenvalues --    1.52738   1.54032   1.54963   1.56463   1.57707
 Alpha virt. eigenvalues --    1.59771   1.65374   1.66762   1.71526   1.73861
 Alpha virt. eigenvalues --    1.77377   1.77792   1.81245   1.82273   1.82681
 Alpha virt. eigenvalues --    1.84575   1.86049   1.87723   1.87985   1.88116
 Alpha virt. eigenvalues --    1.88806   1.89555   1.91784   1.93200   1.93637
 Alpha virt. eigenvalues --    1.94238   1.95233   1.97084   1.98120   1.99501
 Alpha virt. eigenvalues --    1.99879   2.01005   2.01550   2.02842   2.03607
 Alpha virt. eigenvalues --    2.05023   2.05421   2.06406   2.07398   2.08093
 Alpha virt. eigenvalues --    2.10204   2.11006   2.12289   2.14044   2.15840
 Alpha virt. eigenvalues --    2.16271   2.16809   2.19070   2.21882   2.22671
 Alpha virt. eigenvalues --    2.23978   2.24298   2.26769   2.27535   2.29153
 Alpha virt. eigenvalues --    2.29992   2.31050   2.31201   2.32597   2.33538
 Alpha virt. eigenvalues --    2.37408   2.39321   2.40174   2.41354   2.44780
 Alpha virt. eigenvalues --    2.45587   2.47873   2.50583   2.51924   2.54597
 Alpha virt. eigenvalues --    2.57068   2.58296   2.60166   2.62198   2.64248
 Alpha virt. eigenvalues --    2.66147   2.67793   2.69047   2.71204   2.72656
 Alpha virt. eigenvalues --    2.74670   2.79212   2.81728   2.84379   2.85458
 Alpha virt. eigenvalues --    2.88038   2.90736   2.91159   2.96655   3.05166
 Alpha virt. eigenvalues --    3.11756   3.25221   3.44730   3.93460   3.98829
 Alpha virt. eigenvalues --    4.08820   4.10209   4.10929   4.15262   4.20311
 Alpha virt. eigenvalues --    4.23775   4.26452   4.29285   4.33865   4.39830
 Alpha virt. eigenvalues --    4.43218   4.44898   4.49511   4.53934   4.61547
 Alpha virt. eigenvalues --    4.76356   4.82289
  Beta  occ. eigenvalues --  -90.11073 -19.62628 -19.62493 -14.81280 -14.74954
  Beta  occ. eigenvalues --  -10.64806 -10.59987 -10.59463 -10.58998 -10.58377
  Beta  occ. eigenvalues --  -10.57963 -10.57875 -10.56286 -10.55974 -10.55895
  Beta  occ. eigenvalues --  -10.55468 -10.55373 -10.54637 -10.53839  -8.42915
  Beta  occ. eigenvalues --   -6.35035  -6.34966  -6.34776  -1.20496  -1.12785
  Beta  occ. eigenvalues --   -1.09885  -0.99815  -0.96716  -0.93989  -0.89949
  Beta  occ. eigenvalues --   -0.85489  -0.84771  -0.82387  -0.81352  -0.76512
  Beta  occ. eigenvalues --   -0.75027  -0.69321  -0.68402  -0.67663  -0.67028
  Beta  occ. eigenvalues --   -0.65154  -0.59982  -0.58963  -0.57589  -0.57452
  Beta  occ. eigenvalues --   -0.55464  -0.54307  -0.52787  -0.52033  -0.51432
  Beta  occ. eigenvalues --   -0.50837  -0.50174  -0.49872  -0.48932  -0.48266
  Beta  occ. eigenvalues --   -0.48061  -0.47178  -0.46178  -0.45361  -0.43928
  Beta  occ. eigenvalues --   -0.42843  -0.42071  -0.41512  -0.40404  -0.39806
  Beta  occ. eigenvalues --   -0.39525  -0.37992  -0.37588  -0.36878  -0.35978
  Beta  occ. eigenvalues --   -0.35277  -0.33648  -0.30635  -0.27159
  Beta virt. eigenvalues --   -0.08092   0.04717   0.06036   0.08682   0.10547
  Beta virt. eigenvalues --    0.11451   0.11922   0.12916   0.13756   0.14466
  Beta virt. eigenvalues --    0.14815   0.15938   0.16913   0.17693   0.18603
  Beta virt. eigenvalues --    0.19498   0.19865   0.20474   0.20566   0.20791
  Beta virt. eigenvalues --    0.21685   0.21988   0.22123   0.22855   0.23194
  Beta virt. eigenvalues --    0.23260   0.23793   0.24790   0.25215   0.27462
  Beta virt. eigenvalues --    0.28197   0.28853   0.29980   0.30764   0.31800
  Beta virt. eigenvalues --    0.32716   0.33474   0.34968   0.37189   0.38293
  Beta virt. eigenvalues --    0.40930   0.41850   0.42892   0.45130   0.49866
  Beta virt. eigenvalues --    0.51767   0.51935   0.53730   0.54161   0.54943
  Beta virt. eigenvalues --    0.56249   0.57331   0.58219   0.58984   0.59374
  Beta virt. eigenvalues --    0.60037   0.60092   0.61645   0.62736   0.63260
  Beta virt. eigenvalues --    0.63515   0.64622   0.65299   0.65553   0.67312
  Beta virt. eigenvalues --    0.68231   0.69027   0.69675   0.70792   0.71753
  Beta virt. eigenvalues --    0.72683   0.72755   0.74448   0.75728   0.77309
  Beta virt. eigenvalues --    0.79406   0.79683   0.81486   0.82271   0.83385
  Beta virt. eigenvalues --    0.84848   0.86170   0.86483   0.87314   0.87768
  Beta virt. eigenvalues --    0.88711   0.90242   0.90775   0.91295   0.91687
  Beta virt. eigenvalues --    0.91946   0.93154   0.93332   0.93511   0.95024
  Beta virt. eigenvalues --    0.95771   0.96495   0.97008   0.97798   0.98317
  Beta virt. eigenvalues --    0.98473   0.99382   0.99916   1.01069   1.02365
  Beta virt. eigenvalues --    1.02887   1.03360   1.04229   1.04712   1.05238
  Beta virt. eigenvalues --    1.06891   1.08844   1.10003   1.11429   1.12476
  Beta virt. eigenvalues --    1.13023   1.14017   1.15597   1.15974   1.18801
  Beta virt. eigenvalues --    1.19943   1.20052   1.21036   1.21866   1.25350
  Beta virt. eigenvalues --    1.27957   1.30598   1.31389   1.32865   1.33743
  Beta virt. eigenvalues --    1.36602   1.37307   1.40019   1.41800   1.43405
  Beta virt. eigenvalues --    1.44433   1.46034   1.48317   1.48837   1.50419
  Beta virt. eigenvalues --    1.52279   1.53482   1.54603   1.55123   1.56563
  Beta virt. eigenvalues --    1.57874   1.59928   1.65671   1.66945   1.72143
  Beta virt. eigenvalues --    1.73938   1.77733   1.77883   1.81458   1.82474
  Beta virt. eigenvalues --    1.82819   1.84790   1.86269   1.87872   1.88144
  Beta virt. eigenvalues --    1.88455   1.88944   1.89816   1.91966   1.93506
  Beta virt. eigenvalues --    1.93830   1.94471   1.95587   1.97239   1.98382
  Beta virt. eigenvalues --    1.99677   2.00265   2.01081   2.01752   2.03052
  Beta virt. eigenvalues --    2.03774   2.05277   2.05745   2.06654   2.07795
  Beta virt. eigenvalues --    2.08473   2.10338   2.11175   2.12506   2.14418
  Beta virt. eigenvalues --    2.16065   2.16537   2.17022   2.19363   2.22117
  Beta virt. eigenvalues --    2.22841   2.24243   2.24760   2.27176   2.27987
  Beta virt. eigenvalues --    2.29411   2.30392   2.31226   2.31540   2.32820
  Beta virt. eigenvalues --    2.33871   2.37569   2.39541   2.40246   2.41341
  Beta virt. eigenvalues --    2.45090   2.45643   2.48361   2.50770   2.52112
  Beta virt. eigenvalues --    2.54863   2.57443   2.58733   2.60329   2.62413
  Beta virt. eigenvalues --    2.64591   2.66495   2.68218   2.69918   2.71851
  Beta virt. eigenvalues --    2.73076   2.74993   2.79459   2.81874   2.85168
  Beta virt. eigenvalues --    2.85548   2.88424   2.90891   2.91598   2.97024
  Beta virt. eigenvalues --    3.05553   3.12146   3.26266   3.45439   3.93690
  Beta virt. eigenvalues --    3.99413   4.09001   4.10587   4.11505   4.15706
  Beta virt. eigenvalues --    4.20346   4.23941   4.26736   4.29322   4.33902
  Beta virt. eigenvalues --    4.40283   4.43501   4.45347   4.49730   4.53991
  Beta virt. eigenvalues --    4.61547   4.76434   4.82517
          Condensed to atoms (all electrons):
               1          2          3          4          5          6
     1  C    4.963772   0.507040  -0.056567  -0.040200  -0.032076   0.546348
     2  C    0.507040   4.669613   0.443337  -0.038287  -0.038888  -0.013372
     3  C   -0.056567   0.443337   4.759570   0.494059   0.003940  -0.039259
     4  C   -0.040200  -0.038287   0.494059   5.019959   0.521774  -0.040534
     5  C   -0.032076  -0.038888   0.003940   0.521774   4.907249   0.511216
     6  C    0.546348  -0.013372  -0.039259  -0.040534   0.511216   4.915187
     7  H    0.358683  -0.029592   0.005995   0.000039   0.004072  -0.041045
     8  H    0.000213   0.003393  -0.031867   0.360618  -0.035857   0.003614
     9  H    0.003530   0.000881   0.002454  -0.034990   0.368082  -0.035492
    10  H   -0.033753   0.002713   0.000657   0.003984  -0.037828   0.370094
    11  N    0.009290  -0.046600   0.282523  -0.095829   0.005936   0.000058
    12  N   -0.075180   0.388151  -0.065669   0.011329  -0.000419   0.005234
    13  C    0.007145  -0.090243  -0.086758   0.009478  -0.000240  -0.000250
    14  C   -0.000140   0.006096  -0.040035  -0.000573  -0.000055   0.000012
    15  H   -0.000003  -0.000212  -0.003442   0.002270   0.000021  -0.000003
    16  H   -0.000006  -0.000017  -0.001773   0.002510  -0.000006  -0.000002
    17  H    0.000004  -0.000140   0.003521   0.000090  -0.000001   0.000000
    18  S    0.000041   0.001241   0.002956  -0.000027  -0.000014  -0.000011
    19  O    0.000098   0.003097  -0.000617  -0.000025   0.000001  -0.000004
    20  O   -0.000011  -0.000620   0.001742   0.000075  -0.000002   0.000001
    21  C    0.000005   0.000170  -0.000231  -0.000001  -0.000000  -0.000000
    22  C    0.000003  -0.000227  -0.000122   0.000003  -0.000000  -0.000000
    23  H   -0.000000   0.000013   0.000001  -0.000000   0.000000  -0.000000
    24  H    0.000000   0.000000   0.000001   0.000000   0.000000  -0.000000
    25  C   -0.000179   0.005108   0.003068  -0.000137   0.000004   0.000003
    26  H   -0.000000   0.000000   0.000004  -0.000000   0.000000  -0.000000
    27  H   -0.000000   0.000004   0.000001  -0.000000   0.000000   0.000000
    28  C    0.000006  -0.000512   0.001051  -0.000018  -0.000002   0.000001
    29  H   -0.000038   0.000306   0.000031  -0.000002  -0.000000   0.000000
    30  H   -0.000000   0.000035  -0.000015  -0.000005  -0.000000  -0.000000
    31  H    0.000000  -0.000000  -0.000008  -0.000000   0.000000   0.000000
    32  C   -0.000064  -0.000253  -0.000917   0.000021   0.000006  -0.000001
    33  C   -0.000003   0.000037  -0.000029  -0.000004   0.000000  -0.000000
    34  H   -0.000004   0.001924   0.004714   0.000153  -0.000039  -0.000022
    35  H    0.000005   0.000156  -0.000081  -0.000006   0.000001  -0.000000
    36  H   -0.000000   0.000000  -0.000000   0.000000  -0.000000   0.000000
    37  H    0.000000   0.000001  -0.000001   0.000000   0.000000  -0.000000
    38  H   -0.000000  -0.000000   0.000000   0.000000   0.000000   0.000000
               7          8          9         10         11         12
     1  C    0.358683   0.000213   0.003530  -0.033753   0.009290  -0.075180
     2  C   -0.029592   0.003393   0.000881   0.002713  -0.046600   0.388151
     3  C    0.005995  -0.031867   0.002454   0.000657   0.282523  -0.065669
     4  C    0.000039   0.360618  -0.034990   0.003984  -0.095829   0.011329
     5  C    0.004072  -0.035857   0.368082  -0.037828   0.005936  -0.000419
     6  C   -0.041045   0.003614  -0.035492   0.370094   0.000058   0.005234
     7  H    0.522884   0.000014  -0.000124  -0.004306  -0.000083  -0.001695
     8  H    0.000014   0.535755  -0.003909  -0.000133  -0.007398  -0.000123
     9  H   -0.000124  -0.003909   0.533705  -0.004272  -0.000115   0.000002
    10  H   -0.004306  -0.000133  -0.004272   0.534582   0.000003  -0.000090
    11  N   -0.000083  -0.007398  -0.000115   0.000003   7.212348  -0.093462
    12  N   -0.001695  -0.000123   0.000002  -0.000090  -0.093462   7.085515
    13  C   -0.000277  -0.000211   0.000003   0.000005   0.208983   0.300022
    14  C    0.000002   0.004141  -0.000001  -0.000000   0.261806   0.003834
    15  H    0.000000   0.000197   0.000000   0.000000  -0.045312  -0.000088
    16  H    0.000000   0.000814   0.000000  -0.000000  -0.039546  -0.000120
    17  H   -0.000000  -0.000020  -0.000000  -0.000000  -0.031677   0.000093
    18  S    0.000018  -0.000010   0.000000  -0.000000  -0.048818  -0.039215
    19  O    0.000008  -0.000000   0.000000  -0.000000   0.001151   0.001480
    20  O   -0.000000   0.000003  -0.000000   0.000000  -0.000320   0.001508
    21  C   -0.000000  -0.000000   0.000000   0.000000   0.003903   0.001034
    22  C    0.000000   0.000000   0.000000   0.000000   0.000187   0.005103
    23  H    0.000000   0.000000   0.000000  -0.000000   0.000004   0.000239
    24  H   -0.000000   0.000000  -0.000000  -0.000000  -0.000073  -0.000052
    25  C   -0.000003   0.000001  -0.000000  -0.000000  -0.054209  -0.056241
    26  H   -0.000000  -0.000000   0.000000   0.000000   0.001010  -0.000034
    27  H    0.000000  -0.000000  -0.000000  -0.000000  -0.000094  -0.000086
    28  C   -0.000000   0.000001  -0.000000   0.000000  -0.002318  -0.003489
    29  H    0.000005   0.000000   0.000000  -0.000000   0.004990   0.000856
    30  H   -0.000000  -0.000002   0.000000  -0.000000   0.001090  -0.000041
    31  H   -0.000000  -0.000000  -0.000000  -0.000000   0.000205  -0.000136
    32  C    0.000003   0.000001   0.000000  -0.000000  -0.005114   0.002447
    33  C    0.000000  -0.000000  -0.000000  -0.000000   0.000016   0.000162
    34  H    0.000004   0.000009  -0.000000  -0.000000  -0.001337  -0.002890
    35  H    0.000003  -0.000000   0.000000  -0.000000   0.000418   0.000821
    36  H   -0.000000   0.000000   0.000000  -0.000000  -0.000001   0.000001
    37  H    0.000000  -0.000000   0.000000  -0.000000   0.000029  -0.000001
    38  H    0.000000   0.000000  -0.000000  -0.000000  -0.000004  -0.000002
              13         14         15         16         17         18
     1  C    0.007145  -0.000140  -0.000003  -0.000006   0.000004   0.000041
     2  C   -0.090243   0.006096  -0.000212  -0.000017  -0.000140   0.001241
     3  C   -0.086758  -0.040035  -0.003442  -0.001773   0.003521   0.002956
     4  C    0.009478  -0.000573   0.002270   0.002510   0.000090  -0.000027
     5  C   -0.000240  -0.000055   0.000021  -0.000006  -0.000001  -0.000014
     6  C   -0.000250   0.000012  -0.000003  -0.000002   0.000000  -0.000011
     7  H   -0.000277   0.000002   0.000000   0.000000  -0.000000   0.000018
     8  H   -0.000211   0.004141   0.000197   0.000814  -0.000020  -0.000010
     9  H    0.000003  -0.000001   0.000000   0.000000  -0.000000   0.000000
    10  H    0.000005  -0.000000   0.000000  -0.000000  -0.000000  -0.000000
    11  N    0.208983   0.261806  -0.045312  -0.039546  -0.031677  -0.048818
    12  N    0.300022   0.003834  -0.000088  -0.000120   0.000093  -0.039215
    13  C    5.483881  -0.033500   0.002694   0.000215  -0.003029   0.140832
    14  C   -0.033500   4.996171   0.375706   0.384576   0.384506  -0.001063
    15  H    0.002694   0.375706   0.555551  -0.036920  -0.028249  -0.000028
    16  H    0.000215   0.384576  -0.036920   0.497182  -0.021888   0.000719
    17  H   -0.003029   0.384506  -0.028249  -0.021888   0.502825   0.001199
    18  S    0.140832  -0.001063  -0.000028   0.000719   0.001199  13.947187
    19  O   -0.040698  -0.000005   0.000001  -0.000011   0.000004   0.443766
    20  O   -0.039702   0.000975   0.000455   0.001899   0.000425   0.387614
    21  C   -0.063016   0.000291   0.000006  -0.000002  -0.000734   0.122197
    22  C   -0.041061  -0.002491   0.000075   0.000027   0.000661  -0.030098
    23  H   -0.001312  -0.000018   0.000000  -0.000000   0.000012  -0.008169
    24  H    0.002022   0.000002  -0.000001   0.000004  -0.000002  -0.012045
    25  C    0.280192   0.001249   0.000569  -0.000394   0.001307  -0.076549
    26  H   -0.006397  -0.002169  -0.000038   0.000015   0.006195   0.002033
    27  H    0.004705   0.000085   0.000000  -0.000001   0.000007   0.001837
    28  C   -0.041712  -0.002967  -0.001223   0.000257  -0.001739   0.000978
    29  H   -0.048725  -0.000160  -0.000003   0.000007   0.000009   0.002373
    30  H   -0.009978   0.001852   0.000505   0.000178   0.000853  -0.000223
    31  H    0.005838  -0.000027  -0.000006  -0.000001   0.000017  -0.000111
    32  C    0.001851   0.000232   0.000356  -0.000014   0.000021   0.000268
    33  C    0.000004  -0.000016  -0.000005  -0.000000   0.000002   0.000003
    34  H    0.004740  -0.000520   0.000079   0.000001  -0.000014   0.000088
    35  H   -0.001944  -0.000005  -0.000002   0.000000  -0.000002  -0.000008
    36  H    0.000004   0.000001  -0.000000  -0.000000  -0.000000  -0.000000
    37  H   -0.000023  -0.000020   0.000088   0.000000  -0.000005  -0.000000
    38  H    0.000006   0.000000   0.000001  -0.000000   0.000000   0.000000
              19         20         21         22         23         24
     1  C    0.000098  -0.000011   0.000005   0.000003  -0.000000   0.000000
     2  C    0.003097  -0.000620   0.000170  -0.000227   0.000013   0.000000
     3  C   -0.000617   0.001742  -0.000231  -0.000122   0.000001   0.000001
     4  C   -0.000025   0.000075  -0.000001   0.000003  -0.000000   0.000000
     5  C    0.000001  -0.000002  -0.000000  -0.000000   0.000000   0.000000
     6  C   -0.000004   0.000001  -0.000000  -0.000000  -0.000000  -0.000000
     7  H    0.000008  -0.000000  -0.000000   0.000000   0.000000  -0.000000
     8  H   -0.000000   0.000003  -0.000000   0.000000   0.000000   0.000000
     9  H    0.000000  -0.000000   0.000000   0.000000   0.000000  -0.000000
    10  H   -0.000000   0.000000   0.000000   0.000000  -0.000000  -0.000000
    11  N    0.001151  -0.000320   0.003903   0.000187   0.000004  -0.000073
    12  N    0.001480   0.001508   0.001034   0.005103   0.000239  -0.000052
    13  C   -0.040698  -0.039702  -0.063016  -0.041061  -0.001312   0.002022
    14  C   -0.000005   0.000975   0.000291  -0.002491  -0.000018   0.000002
    15  H    0.000001   0.000455   0.000006   0.000075   0.000000  -0.000001
    16  H   -0.000011   0.001899  -0.000002   0.000027  -0.000000   0.000004
    17  H    0.000004   0.000425  -0.000734   0.000661   0.000012  -0.000002
    18  S    0.443766   0.387614   0.122197  -0.030098  -0.008169  -0.012045
    19  O    8.209737  -0.047835  -0.053010   0.002034   0.000514   0.000089
    20  O   -0.047835   8.324204  -0.054978   0.001925   0.001778   0.000370
    21  C   -0.053010  -0.054978   5.674113   0.289460   0.348764   0.356642
    22  C    0.002034   0.001925   0.289460   5.191447  -0.033495  -0.023525
    23  H    0.000514   0.001778   0.348764  -0.033495   0.479370  -0.016800
    24  H    0.000089   0.000370   0.356642  -0.023525  -0.016800   0.457657
    25  C    0.001702   0.000473  -0.040657   0.330377  -0.001339   0.003479
    26  H   -0.000001   0.002530  -0.040987   0.373843   0.004232  -0.002726
    27  H   -0.000038  -0.000023  -0.026848   0.380369  -0.004974  -0.001406
    28  C   -0.000021  -0.000062   0.004193  -0.044816  -0.000029  -0.000072
    29  H   -0.000125  -0.000022  -0.002349  -0.045933   0.003483   0.000077
    30  H   -0.000000  -0.000018   0.000130  -0.004864   0.000000   0.000004
    31  H    0.000000   0.000001   0.000097  -0.003660  -0.000005  -0.000002
    32  C   -0.000000  -0.000001  -0.000176   0.004399  -0.000001   0.000001
    33  C   -0.000000  -0.000000   0.000001  -0.000113  -0.000000  -0.000000
    34  H   -0.000001  -0.000001  -0.000005  -0.000024   0.000000   0.000000
    35  H   -0.000000   0.000000   0.000002   0.000097  -0.000001   0.000000
    36  H    0.000000   0.000000  -0.000000   0.000001  -0.000000   0.000000
    37  H    0.000000   0.000000   0.000000   0.000002  -0.000000   0.000000
    38  H    0.000000   0.000000   0.000000  -0.000004   0.000000  -0.000000
              25         26         27         28         29         30
     1  C   -0.000179  -0.000000  -0.000000   0.000006  -0.000038  -0.000000
     2  C    0.005108   0.000000   0.000004  -0.000512   0.000306   0.000035
     3  C    0.003068   0.000004   0.000001   0.001051   0.000031  -0.000015
     4  C   -0.000137  -0.000000  -0.000000  -0.000018  -0.000002  -0.000005
     5  C    0.000004   0.000000   0.000000  -0.000002  -0.000000  -0.000000
     6  C    0.000003  -0.000000   0.000000   0.000001   0.000000  -0.000000
     7  H   -0.000003  -0.000000   0.000000  -0.000000   0.000005  -0.000000
     8  H    0.000001  -0.000000  -0.000000   0.000001   0.000000  -0.000002
     9  H   -0.000000   0.000000  -0.000000  -0.000000   0.000000   0.000000
    10  H   -0.000000   0.000000  -0.000000   0.000000  -0.000000  -0.000000
    11  N   -0.054209   0.001010  -0.000094  -0.002318   0.004990   0.001090
    12  N   -0.056241  -0.000034  -0.000086  -0.003489   0.000856  -0.000041
    13  C    0.280192  -0.006397   0.004705  -0.041712  -0.048725  -0.009978
    14  C    0.001249  -0.002169   0.000085  -0.002967  -0.000160   0.001852
    15  H    0.000569  -0.000038   0.000000  -0.001223  -0.000003   0.000505
    16  H   -0.000394   0.000015  -0.000001   0.000257   0.000007   0.000178
    17  H    0.001307   0.006195   0.000007  -0.001739   0.000009   0.000853
    18  S   -0.076549   0.002033   0.001837   0.000978   0.002373  -0.000223
    19  O    0.001702  -0.000001  -0.000038  -0.000021  -0.000125  -0.000000
    20  O    0.000473   0.002530  -0.000023  -0.000062  -0.000022  -0.000018
    21  C   -0.040657  -0.040987  -0.026848   0.004193  -0.002349   0.000130
    22  C    0.330377   0.373843   0.380369  -0.044816  -0.045933  -0.004864
    23  H   -0.001339   0.004232  -0.004974  -0.000029   0.003483   0.000000
    24  H    0.003479  -0.002726  -0.001406  -0.000072   0.000077   0.000004
    25  C    5.159910  -0.033387  -0.030277   0.367861   0.387259  -0.035318
    26  H   -0.033387   0.532349  -0.026930  -0.003608   0.004856   0.003315
    27  H   -0.030277  -0.026930   0.516652  -0.002036  -0.005668  -0.000188
    28  C    0.367861  -0.003608  -0.002036   5.054521  -0.033520   0.376587
    29  H    0.387259   0.004856  -0.005668  -0.033520   0.538402   0.005083
    30  H   -0.035318   0.003315  -0.000188   0.376587   0.005083   0.587208
    31  H   -0.039157  -0.000168   0.003280   0.382421  -0.004422  -0.034199
    32  C   -0.042827   0.000006  -0.000042   0.367768  -0.004289  -0.039722
    33  C    0.004157  -0.000002  -0.000001  -0.050311   0.000101  -0.002343
    34  H   -0.008018   0.000002  -0.000001  -0.036775  -0.000217  -0.004791
    35  H   -0.002380   0.000003  -0.000001  -0.043500   0.004711   0.005277
    36  H   -0.000133   0.000000   0.000000   0.004364  -0.000002  -0.000056
    37  H    0.000110  -0.000001   0.000000  -0.005135   0.000005   0.004397
    38  H   -0.000053   0.000000  -0.000001  -0.004886  -0.000001  -0.000301
              31         32         33         34         35         36
     1  C    0.000000  -0.000064  -0.000003  -0.000004   0.000005  -0.000000
     2  C   -0.000000  -0.000253   0.000037   0.001924   0.000156   0.000000
     3  C   -0.000008  -0.000917  -0.000029   0.004714  -0.000081  -0.000000
     4  C   -0.000000   0.000021  -0.000004   0.000153  -0.000006   0.000000
     5  C    0.000000   0.000006   0.000000  -0.000039   0.000001  -0.000000
     6  C    0.000000  -0.000001  -0.000000  -0.000022  -0.000000   0.000000
     7  H   -0.000000   0.000003   0.000000   0.000004   0.000003  -0.000000
     8  H   -0.000000   0.000001  -0.000000   0.000009  -0.000000   0.000000
     9  H   -0.000000   0.000000  -0.000000  -0.000000   0.000000   0.000000
    10  H   -0.000000  -0.000000  -0.000000  -0.000000  -0.000000  -0.000000
    11  N    0.000205  -0.005114   0.000016  -0.001337   0.000418  -0.000001
    12  N   -0.000136   0.002447   0.000162  -0.002890   0.000821   0.000001
    13  C    0.005838   0.001851   0.000004   0.004740  -0.001944   0.000004
    14  C   -0.000027   0.000232  -0.000016  -0.000520  -0.000005   0.000001
    15  H   -0.000006   0.000356  -0.000005   0.000079  -0.000002  -0.000000
    16  H   -0.000001  -0.000014  -0.000000   0.000001   0.000000  -0.000000
    17  H    0.000017   0.000021   0.000002  -0.000014  -0.000002  -0.000000
    18  S   -0.000111   0.000268   0.000003   0.000088  -0.000008  -0.000000
    19  O    0.000000  -0.000000  -0.000000  -0.000001  -0.000000   0.000000
    20  O    0.000001  -0.000001  -0.000000  -0.000001   0.000000   0.000000
    21  C    0.000097  -0.000176   0.000001  -0.000005   0.000002  -0.000000
    22  C   -0.003660   0.004399  -0.000113  -0.000024   0.000097   0.000001
    23  H   -0.000005  -0.000001  -0.000000   0.000000  -0.000001  -0.000000
    24  H   -0.000002   0.000001  -0.000000   0.000000   0.000000   0.000000
    25  C   -0.039157  -0.042827   0.004157  -0.008018  -0.002380  -0.000133
    26  H   -0.000168   0.000006  -0.000002   0.000002   0.000003   0.000000
    27  H    0.003280  -0.000042  -0.000001  -0.000001  -0.000001   0.000000
    28  C    0.382421   0.367768  -0.050311  -0.036775  -0.043500   0.004364
    29  H   -0.004422  -0.004289   0.000101  -0.000217   0.004711  -0.000002
    30  H   -0.034199  -0.039722  -0.002343  -0.004791   0.005277  -0.000056
    31  H    0.573077  -0.038586  -0.003871   0.004882  -0.004140  -0.000008
    32  C   -0.038586   5.019458   0.354641   0.385393   0.391036  -0.029300
    33  C   -0.003871   0.354641   5.101493  -0.036506  -0.036859   0.382957
    34  H    0.004882   0.385393  -0.036506   0.558067  -0.032509  -0.002759
    35  H   -0.004140   0.391036  -0.036859  -0.032509   0.557023  -0.002719
    36  H   -0.000008  -0.029300   0.382957  -0.002759  -0.002719   0.534394
    37  H   -0.000274  -0.035799   0.382726  -0.004097   0.004683  -0.027777
    38  H    0.004727  -0.036450   0.383747   0.004704  -0.004071  -0.027580
              37         38
     1  C    0.000000  -0.000000
     2  C    0.000001  -0.000000
     3  C   -0.000001   0.000000
     4  C    0.000000   0.000000
     5  C    0.000000   0.000000
     6  C   -0.000000   0.000000
     7  H    0.000000   0.000000
     8  H   -0.000000   0.000000
     9  H    0.000000  -0.000000
    10  H   -0.000000  -0.000000
    11  N    0.000029  -0.000004
    12  N   -0.000001  -0.000002
    13  C   -0.000023   0.000006
    14  C   -0.000020   0.000000
    15  H    0.000088   0.000001
    16  H    0.000000  -0.000000
    17  H   -0.000005   0.000000
    18  S   -0.000000   0.000000
    19  O    0.000000   0.000000
    20  O    0.000000   0.000000
    21  C    0.000000   0.000000
    22  C    0.000002  -0.000004
    23  H   -0.000000   0.000000
    24  H    0.000000  -0.000000
    25  C    0.000110  -0.000053
    26  H   -0.000001   0.000000
    27  H    0.000000  -0.000001
    28  C   -0.005135  -0.004886
    29  H    0.000005  -0.000001
    30  H    0.004397  -0.000301
    31  H   -0.000274   0.004727
    32  C   -0.035799  -0.036450
    33  C    0.382726   0.383747
    34  H   -0.004097   0.004704
    35  H    0.004683  -0.004071
    36  H   -0.027777  -0.027580
    37  H    0.558204  -0.030602
    38  H   -0.030602   0.554834
          Atomic-Atomic Spin Densities.
               1          2          3          4          5          6
     1  C    0.162764   0.031987   0.005068   0.001032  -0.009496  -0.027625
     2  C    0.031987  -0.077141   0.024761   0.002829  -0.002888  -0.000031
     3  C    0.005068   0.024761   0.190515   0.030487  -0.012162  -0.002634
     4  C    0.001032   0.002829   0.030487  -0.076633  -0.025798  -0.000790
     5  C   -0.009496  -0.002888  -0.012162  -0.025798   0.237304   0.030658
     6  C   -0.027625  -0.000031  -0.002634  -0.000790   0.030658  -0.049039
     7  H   -0.000232   0.000435  -0.000055   0.000007   0.000002   0.000301
     8  H    0.000001  -0.000020  -0.000181   0.000850  -0.000298  -0.000049
     9  H    0.000025  -0.000019   0.000034   0.000338  -0.000522   0.000335
    10  H   -0.000407  -0.000025  -0.000004  -0.000003  -0.000520   0.000925
[...]
 205,-0.00106928,0.00007134,-0.00000794,-0.00005861,0.00000764,0.000263
 79,-0.00000609,-0.00001541,-0.02282179,-0.01763669,0.00771350,-0.00008
 035,0.00007150,-0.00005838,0.00127557,-0.00006465,-0.00000754,-0.00422
 265,0.00254143,-0.00278254,-0.19373602,-0.12361113,0.05004618,0.007694
 06,0.00663449,-0.00281405,0.21152379,0.00004278,0.00011700,0.00007341,
 -0.00061125,-0.00115759,0.00044040,-0.00038947,-0.00148483,-0.00009167
 ,-0.00010794,0.00004461,-0.00009575,0.00012222,0.00004551,0.00002290,0
 .00005888,0.00000186,0.00002189,0.00000456,0.00001225,0.00000738,0.000
 00817,0.00002116,-0.00002146,0.00000905,0.00001207,-0.00000094,0.00000
 776,0.00000678,-0.00000067,0.00072620,-0.00121905,0.00063381,0.0005352
 3,-0.00065408,-0.00017536,0.00016423,-0.00068514,-0.00005401,0.0000142
 0,0.00011089,0.00014052,-0.00004615,0.00006002,-0.00014813,-0.00003085
 ,-0.00002638,-0.00004568,-0.00001483,-0.00000579,-0.00002553,0.0002491
 1,-0.00036402,0.00014150,-0.00003376,0.00012542,0.00005315,-0.00005872
 ,0.00003958,-0.00015394,-0.00008928,0.00007859,-0.00003503,0.00003317,
 0.00003795,0.00005540,-0.00000428,-0.00000588,-0.00000056,-0.00002463,
 -0.00000597,0.00001793,-0.00035780,0.00083712,-0.00039087,-0.00000801,
 0.00001974,-0.00001171,-0.00008037,-0.00003513,0.00001094,0.00905502,0
 .00756572,-0.00357124,-0.00003221,0.00001528,-0.00002858,-0.00066945,0
 .00020440,-0.00016201,0.00272682,-0.00015631,0.00106176,-0.12469162,-0
 .15249289,0.04273601,-0.02230935,-0.02110930,0.00804043,0.13240913,0.1
 7253565,-0.00020431,0.00000156,-0.00009251,-0.00035494,-0.00052369,-0.
 00001949,0.00121130,0.00106220,0.00048153,-0.00053507,-0.00029641,0.00
 001994,0.00030174,0.00007915,0.00039003,0.00004239,0.00002788,-0.00022
 745,0.00000113,-0.00004461,-0.00001740,0.00000844,0.00003705,-0.000048
 63,-0.00000175,0.00000475,-0.00000627,0.00000858,-0.00000804,-0.000012
 34,-0.00106495,0.00007647,-0.00075805,0.00022750,0.00047710,-0.0003932
 4,0.00007333,0.00019128,0.00060554,-0.00013400,0.00028002,0.00011113,0
 .00010391,-0.00011703,-0.00016815,0.00003397,-0.00005879,-0.00007075,-
 0.00001169,-0.00000211,-0.00001390,0.00008528,-0.00004282,0.00012380,-
 0.00002793,0.00002458,-0.00001139,-0.00000122,-0.00001048,-0.00009095,
 0.00005007,0.00002713,-0.00002250,-0.00001299,-0.00005532,0.00000237,-
 0.00000367,0.00000185,0.00000017,-0.00001008,-0.00001245,0.00000277,0.
 00073199,-0.00016127,0.00011410,-0.00000290,-0.00002166,-0.00000036,0.
 00005731,-0.00002767,-0.00003920,-0.01140847,-0.00948538,0.00315561,0.
 00000362,0.00012768,0.00001227,0.00048241,-0.00069713,0.00059684,-0.00
 315223,0.00069503,-0.00034739,0.05072416,0.04287684,-0.06807192,-0.008
 48973,-0.00766533,0.00260850,-0.05319333,-0.04631498,0.06954244,-0.000
 04914,0.00000539,0.00000603,0.00000187,0.00006499,0.00004188,0.0004070
 6,0.00013305,0.00022646,-0.00010570,-0.00004633,-0.00004087,0.00008439
 ,0.00003278,0.00013155,0.00002753,0.00001462,-0.00007891,-0.00000460,-
 0.00003438,-0.00001687,-0.00000706,0.00001971,-0.00001454,-0.00000006,
 -0.00000018,-0.00000375,-0.00000346,-0.00000644,-0.00000297,-0.0002435
 9,-0.00076458,0.00004695,-0.00008452,0.00039938,-0.00003108,-0.0000227
 7,0.00014146,0.00017962,-0.00018423,0.00015035,-0.00022159,-0.00008075
 ,0.00002391,-0.00004298,0.00008920,0.00003137,0.00003807,0.00013591,-0
 .00009637,0.00002575,-0.00001137,0.00005843,-0.00006320,-0.00000361,-0
 .00000384,0.00001082,0.00000830,0.00000656,0.00003450,0.00003730,-0.00
 002937,0.00011841,-0.00009322,-0.00018453,0.00005087,-0.00000934,0.000
 04295,0.00001318,0.00000297,-0.00001677,-0.00001236,0.00134628,-0.0011
 1820,-0.00097732,0.00011747,-0.00005532,0.00017355,-0.00003955,-0.0000
 1038,-0.00002227,0.00095638,0.00123174,-0.03136120,-0.00016261,0.00034
 057,0.00071366,-0.00502417,0.00213030,-0.00262342,0.00113197,-0.000610
 90,0.00045581,-0.05179949,-0.00134212,0.02174000,-0.00116056,-0.000036
 48,0.00825228,-0.00174533,0.00117139,0.02483582,0.05585016,-0.00005368
 ,-0.00000597,0.00000827,-0.00020276,0.00000714,-0.00002818,0.00078953,
 0.00019324,0.00019899,-0.00026437,-0.00006294,-0.00001029,0.00015462,0
 .00006365,0.00020431,0.00006121,0.00000750,-0.00013801,-0.00001267,-0.
 00001720,-0.00001009,0.00000654,0.00000789,-0.00001705,-0.00000118,-0.
 00000211,-0.00000230,0.00000323,-0.00000133,-0.00000566,-0.00024527,-0
 .00098920,-0.00004209,-0.00008115,0.00058419,-0.00020931,-0.00013680,0
 .00017090,0.00039136,0.00002056,0.00006279,-0.00005385,0.00000478,0.00
 002979,-0.00009138,-0.00004522,-0.00002116,-0.00000656,-0.00004711,0.0
 0002917,-0.00001840,0.00003503,-0.00006510,0.00017613,-0.00002416,0.00
 002104,-0.00002604,0.00002582,-0.00002419,-0.00006021,-0.00002585,0.00
 001940,-0.00004179,0.00008314,0.00002059,-0.00008861,0.00001218,-0.000
 02112,-0.00001284,-0.00000639,0.00000206,-0.00000061,-0.00039963,0.000
 65709,0.00135285,-0.00007150,0.00000080,-0.00010243,-0.00002870,-0.000
 00216,0.00000117,-0.00071987,-0.00121738,0.01085622,0.00037862,-0.0001
 4803,-0.00031330,0.00232069,-0.00021686,0.00067611,-0.00002766,0.00016
 069,-0.00065145,-0.00120694,-0.04879198,-0.00313427,0.00313030,-0.0011
 8918,-0.03322728,-0.00099234,0.00031955,0.02100078,-0.00334064,0.05388
 448,0.00005839,-0.00001582,-0.00001719,0.00009078,0.00014571,-0.000017
 77,-0.00061392,-0.00015143,-0.00005239,0.00029393,0.00008289,-0.000004
 07,-0.00014862,-0.00005871,-0.00021233,-0.00005839,-0.00001330,0.00012
 720,0.00001017,0.00003212,0.00001212,-0.00000687,-0.00001414,0.0000210
 1,-0.00000200,-0.00000130,0.00000176,0.00000204,0.00000633,0.00000489,
 0.00025640,0.00051866,0.00023669,0.00001629,-0.00046161,0.00010989,0.0
 0006862,0.00006665,-0.00031090,-0.00007843,-0.00009921,-0.00014419,-0.
 00005329,0.00000345,0.00011311,0.00003568,0.00004272,0.00004473,0.0000
 9015,-0.00003895,0.00002475,-0.00002921,-0.00000409,-0.00020398,0.0000
 1833,0.00000591,0.00004688,-0.00002214,0.00005191,0.00008046,-0.000056
 41,0.00000974,0.00003478,-0.00003117,0.00004413,0.00045617,-0.00001854
 ,0.00003148,0.00000218,0.00000472,0.00002688,0.00000029,0.00069557,-0.
 00067445,0.00041747,0.00021065,-0.00014672,0.00006465,-0.00001155,-0.0
 0001496,-0.00003904,0.00050550,0.00046950,-0.01411158,-0.00044100,0.00
 088772,0.00038419,-0.00269325,0.00046764,0.00031085,-0.00015286,-0.000
 26071,0.00048245,0.02121492,-0.00296259,-0.31151623,0.00104099,-0.0004
 2079,-0.00821775,0.00083349,-0.00001084,-0.00814048,-0.02125789,0.0045
 1005,0.33817314,-0.00003965,-0.00002451,-0.00001855,-0.00001259,-0.000
 01018,0.00002072,-0.00013467,-0.00004716,-0.00003214,0.00003145,0.0000
 0168,0.00001071,0.00001765,0.00000228,0.00001528,0.00003551,-0.0000036
 8,-0.00004185,-0.00000161,0.00000860,0.00000627,-0.00000343,0.00000174
 ,-0.00000388,0.00000643,0.00000498,-0.00000142,0.00000890,0.00000731,0
 .00000041,0.00011645,0.00012424,0.00001060,0.00004673,0.00006934,-0.00
 002847,-0.00014465,-0.00008110,0.00008512,-0.00001450,0.00000289,0.000
 02653,-0.00000726,-0.00000171,0.00000443,0.00001158,0.00001044,0.00000
 320,0.00001850,-0.00001330,0.00001439,0.00000970,-0.00013499,0.0000239
 9,0.00000600,0.00011298,0.00004008,-0.00000870,0.00005821,-0.00005605,
 -0.00007374,-0.00000206,-0.00004996,0.00007039,0.00016349,0.00010409,0
 .00000927,0.00000087,-0.00000115,0.00000447,0.00003908,0.00000807,-0.0
 0014135,-0.00008939,-0.00057537,-0.00000484,-0.00000726,-0.00000495,0.
 00001111,-0.00000772,-0.00000467,0.00075556,0.00158945,0.00124970,-0.0
 0000776,-0.00000369,0.00001134,0.00001009,-0.00007685,-0.00011102,0.00
 052712,-0.00004072,0.00004656,-0.00495432,0.00052365,-0.00197864,-0.25
 494896,0.07114789,-0.09677592,0.00052875,0.00016236,0.00010966,-0.0000
 6597,-0.00000138,0.00028955,0.27331899,0.00005771,0.00004305,0.0000049
 4,-0.00001141,-0.00000321,-0.00003038,0.00020514,0.00004192,0.00007292
 ,-0.00005932,0.00002577,-0.00000125,-0.00005076,-0.00000163,-0.0000218
 3,-0.00007063,0.00001139,0.00006528,0.00000382,-0.00001742,-0.00001012
 ,0.00000604,-0.00001356,0.00001087,-0.00000715,-0.00001220,0.00000183,
 -0.00000917,-0.00001388,0.00000038,-0.00020666,-0.00013931,-0.00001156
 ,-0.00006526,-0.00002113,0.00003262,0.00023733,0.00032439,-0.00006921,
 0.00003145,-0.00001225,-0.00003403,0.00000591,0.00001004,-0.00000145,-
 0.00001762,-0.00001171,-0.00000524,-0.00002561,0.00001653,-0.00002860,
 0.00014125,0.00013802,-0.00004742,-0.00004982,-0.00010968,-0.00002987,
 -0.00003711,-0.00005392,0.00006295,0.00023158,-0.00001841,0.00012822,-
 0.00009221,-0.00063986,-0.00033645,-0.00001667,-0.00000291,0.00000133,
 -0.00001125,-0.00011550,-0.00002416,0.00190063,0.00007000,0.00104088,-
 0.00000707,0.00000926,0.00001834,-0.00001108,0.00000981,-0.00001862,-0
 .00030699,-0.00601488,-0.00333452,0.00000209,0.00003566,-0.00001797,-0
 .00033920,0.00004345,-0.00003788,0.00013542,0.00014230,-0.00023387,0.0
 2752665,-0.00850124,0.01438130,0.07057035,-0.07307354,0.03393458,-0.00
 051739,0.00093082,0.00069645,-0.00032856,0.00128771,-0.00017428,-0.078
 91695,0.07901250,-0.00001400,0.00000063,0.00000996,-0.00002592,-0.0000
 0427,0.00002089,-0.00008218,-0.00002412,-0.00000157,0.00001230,-0.0000
 1939,-0.00001307,0.00001578,-0.00000195,0.00001583,0.00001575,-0.00000
 161,-0.00001398,-0.00000069,-0.00000563,-0.00000148,-0.00000809,0.0000
 0790,-0.00000579,0.00000430,0.00000833,-0.00000307,0.00000047,0.000002
 96,0.00000161,0.00003354,0.00004345,0.00001988,0.00000794,0.00005000,-
 0.00000524,0.00008145,-0.00000611,-0.00001902,0.00001618,-0.00003598,-
 0.00006094,-0.00004198,-0.00002169,0.00003368,-0.00000424,0.00001740,0
 .00001635,0.00001908,-0.00001581,-0.00000798,0.00000463,0.00000849,-0.
 00002043,-0.00000148,-0.00000922,-0.00000197,-0.00000160,0.00000198,0.
 00002623,0.00006180,-0.00001592,0.00002821,0.00001957,-0.00018113,-0.0
 0009475,0.00000067,-0.00000292,-0.00000162,0.00000237,-0.00002215,-0.0
 0001118,0.00042868,-0.00036333,0.00070503,-0.00000941,-0.00000564,0.00
 000380,-0.00000078,0.00000584,-0.00000341,0.00028581,-0.00195836,-0.00
 058034,-0.00002565,0.00011466,0.00002014,0.00021185,-0.00025986,0.0004
 3449,-0.00026351,-0.00005878,-0.00017668,0.01135815,-0.00311444,0.0043
 5723,-0.09699654,0.03429587,-0.09486091,-0.00033124,0.00061418,0.00015
 004,0.00021216,0.00063444,0.00035165,0.10568728,-0.03557091,0.09835682
 ,0.00001678,0.00000569,0.00000141,-0.00002270,-0.00001338,-0.00002091,
 0.00005920,-0.00000563,0.00000329,-0.00001983,0.00002735,0.00000525,-0
 .00002465,0.00000069,-0.00001732,-0.00001760,0.00000029,0.00002114,-0.
 00000070,0.00000109,0.00000068,0.00000733,-0.00001796,0.00001166,-0.00
 000332,-0.00000701,0.00000070,0.00000013,-0.00000142,0.00000067,-0.000
 06110,0.00001843,-0.00001686,-0.00001590,0.00001126,0.00001104,0.00007
 899,0.00001538,-0.00003951,0.00004312,-0.00001896,0.00003537,0.0000398
 5,0.00001979,-0.00000661,-0.00001787,-0.00001144,-0.00001235,-0.000038
 91,0.00003713,0.00000251,0.00004853,-0.00000052,0.00002129,-0.00001749
 ,-0.00001444,-0.00000843,-0.00001816,-0.00001197,-0.00001055,0.0000064
 3,0.00001245,-0.00000490,-0.00002638,-0.00001810,-0.00002276,-0.000002
 81,-0.00000680,-0.00000002,-0.00000579,-0.00001392,0.00000360,-0.00002
 771,0.00007404,-0.00010457,-0.00001080,0.00002243,-0.00001567,-0.00000
 435,-0.00000037,0.00000625,0.00040564,-0.00051612,0.00124546,0.0000013
 7,-0.00006563,-0.00011324,-0.00001884,0.00036416,-0.00033345,-0.000034
 85,-0.00007864,0.00008730,-0.00169038,0.00002845,0.00734359,-0.0525966
 0,0.00002170,0.02540506,0.00010518,-0.00011897,-0.00065051,0.00043511,
 0.00157951,0.00028404,0.00433623,-0.00123372,-0.02968457,0.05110653,0.
 00003683,0.00000248,-0.00000259,0.00004649,0.00003913,0.00000254,-0.00
 020430,-0.00006286,-0.00002509,0.00013152,0.00005864,-0.00000819,-0.00
 008295,-0.00002508,-0.00009451,-0.00003224,-0.00000243,0.00006375,0.00
 000399,0.00000895,0.00000347,-0.00000591,-0.00001812,0.00001904,-0.000
 00086,-0.00000265,0.00000043,0.00000016,-0.00000004,0.00000394,0.00009
 262,0.00016320,0.00010800,-0.00001797,-0.00019377,0.00007021,0.0000529
 7,0.00002280,-0.00009460,0.00006841,-0.00015178,-0.00018060,-0.0000692
 5,0.00004348,0.00012424,-0.00002338,0.00004135,0.00005037,0.00001083,0
 .00000625,0.00001403,-0.00000744,0.00002094,-0.00009402,0.00000162,0.0
 0000022,0.00001972,-0.00002179,0.00002400,0.00004439,-0.00002097,0.000
 00598,0.00000039,-0.00000664,0.00000752,0.00013224,-0.00000614,0.00000
 056,-0.00000017,0.00000187,0.00000659,-0.00000101,-0.00016990,-0.00009
 293,0.00002140,0.00004566,-0.00001763,0.00001363,-0.00000246,-0.000000
 05,0.,-0.00112387,0.00153160,-0.00107694,-0.00008681,0.00012258,0.0001
 9676,0.00037118,-0.00011195,0.00078921,0.00010827,-0.00003413,0.000167
 44,0.00368875,-0.00075643,-0.03368358,0.00000472,-0.04865998,-0.004701
 81,-0.00058313,0.00139592,0.00039289,0.00200521,-0.00607404,-0.0017442
 1,-0.00215671,-0.00072021,0.00981179,-0.00170628,0.05294571,0.00005282
 ,0.00000063,0.00000270,0.00003853,0.00004191,-0.00000585,-0.00008082,-
 0.00003296,-0.00000037,0.00010608,0.00005598,-0.00001669,-0.00007828,-
 0.00002133,-0.00009442,-0.00003779,-0.00000455,0.00007477,0.00000253,0
 .00001453,0.00000415,-0.00000091,-0.00002122,0.00002210,-0.00000719,-0
 .00000739,0.00000125,-0.00000116,0.00000058,0.00000218,0.00006139,0.00
 001291,0.00011634,-0.00002752,-0.00018377,0.00008708,0.00004645,0.0000
 6339,-0.00008556,0.00001997,-0.00011704,-0.00016586,-0.00001681,-0.000
 07468,0.00009191,-0.00001394,0.00002279,0.00003550,0.00001028,-0.00001
 236,-0.00000292,-0.00002388,0.00007600,-0.00011043,0.00000506,-0.00004
 173,0.00001153,-0.00000071,-0.00001057,0.00008269,0.00002834,-0.000013
 14,0.00002582,-0.00000528,-0.00008631,-0.00001637,-0.00000602,0.000002
 23,0.00000029,0.00000261,-0.00001452,-0.00000662,0.00001340,-0.0000311
 3,0.00047410,0.00001452,-0.00001747,0.00001158,-0.00001048,0.00000320,
 -0.00000800,-0.00042262,0.00072726,0.00050665,-0.00013734,0.00024317,0
 .00004067,0.00076473,-0.00046242,0.00043354,0.00001314,-0.00011040,-0.
 00006430,0.00065849,-0.00053145,-0.00992561,0.02529789,-0.00471705,-0.
 31577777,-0.00020512,-0.00022068,0.00044641,0.00015909,-0.00213648,0.0
 0112292,0.00191993,-0.00004515,-0.01218722,-0.02825256,0.00768591,0.34
 234147,-0.00000619,-0.00000445,0.00001613,-0.00002567,-0.00001342,0.00
 000653,-0.00002824,-0.00000391,-0.00000461,-0.00001096,-0.00003179,-0.
 00000938,0.00002648,-0.00000031,0.00000922,0.00001560,-0.00000576,-0.0
 0000514,-0.00000088,0.00000454,0.00000035,-0.00000105,0.00001335,-0.00
 000781,-0.00000082,0.00000662,-0.00000039,-0.00000273,0.00000383,-0.00
 000115,-0.00000973,0.00004539,0.00000262,-0.00001300,-0.00001409,-0.00
 002276,-0.00001816,0.00014570,-0.00004502,-0.00001090,0.00002901,0.000
 02544,0.00000514,-0.00000528,-0.00001952,-0.00000273,-0.00001132,-0.00
 000805,-0.00000411,0.00000293,-0.00001048,-0.00000375,0.00007585,0.000
 00186,0.00000347,-0.00005974,-0.00002793,0.00001871,-0.00003719,0.0000
 2828,0.00004648,-0.00001730,0.00002309,-0.00003215,-0.00008610,-0.0000
 3451,-0.00000389,-0.00000004,-0.00000001,0.00000285,-0.00001658,-0.000
 00497,0.00021683,0.00003164,0.00006107,-0.00000259,0.00000323,0.000002
 04,-0.00000970,0.00000251,-0.00000199,0.00147975,0.00070425,-0.0001872
 2,0.00000112,-0.00001961,-0.00000922,-0.00005822,-0.00006101,-0.000068
 16,0.00010822,-0.00038528,0.00030288,0.00591737,0.00578308,-0.00327697
 ,-0.18872165,-0.12463782,0.05125565,0.00057274,0.00217867,0.00016715,0
 .00026917,-0.00067049,-0.00034465,-0.01931687,-0.01866379,0.00901210,-
 0.00201369,-0.00034209,0.00011318,0.20161374,0.00004483,0.00000239,0.0
 0001691,0.00018424,0.00006153,-0.00001367,0.00018223,0.00013874,-0.000
 02006,0.00004177,-0.00001037,-0.00001452,-0.00000367,-0.00000570,-0.00
 002357,-0.00001339,-0.00000380,0.00001909,-0.00000291,0.00000627,-0.00
 000174,-0.00000254,0.00000772,0.00000227,-0.00000867,-0.00000211,0.000
 00219,-0.00000828,-0.00000175,-0.00000133,0.00003145,-0.00030919,0.000
 03543,-0.00002583,-0.00025218,0.00001037,-0.00034414,0.00023513,0.0001
 4454,-0.00007109,0.00001325,-0.00012170,-0.00000847,0.00000949,-0.0000
 1285,0.00001011,-0.00000127,0.00002293,0.00001991,-0.00000631,0.000007
 89,-0.00017224,0.00019513,-0.00002100,0.00005348,-0.00003909,-0.000014
 52,0.00007049,-0.00003605,0.00002815,0.00004524,-0.00005793,0.00000840
 ,0.00001880,-0.00000920,-0.00000954,0.00000289,0.00000357,-0.00000141,
 0.00001790,0.00001512,-0.00000767,0.00022162,0.00032716,-0.00027103,-0
 .00000445,-0.00000791,0.00000288,0.00005056,-0.00000694,-0.00000401,-0
 .00209234,0.00101529,0.00020747,-0.00004675,-0.00001705,-0.00001250,0.
 00010853,-0.00001995,0.00000238,0.00136252,0.00002045,0.00014262,-0.02
 297294,-0.02131080,0.00900517,-0.12452063,-0.16004105,0.04670648,0.002
 54446,-0.00513552,-0.00253550,0.00002123,0.00132031,-0.00013540,0.0075
 8786,0.00734383,-0.00391869,0.00162143,0.00047619,-0.00003668,0.136056
 77,0.17608261,0.00003767,0.00000988,0.00001284,0.00002774,0.00001098,-
 0.00000313,0.00002620,0.00000467,-0.00001305,0.00003987,0.00002881,-0.
 00001182,-0.00003633,-0.00000802,-0.00003896,-0.00002185,-0.00000107,0
 .00003496,-0.00000148,0.00000077,-0.00000015,-0.00000115,-0.00001466,0
 .00001336,-0.00000337,-0.00000440,-0.00000008,-0.00000185,-0.00000130,
 0.00000219,0.00000782,-0.00007843,0.00004856,-0.00001911,-0.00008189,0
 .00002514,0.00001170,0.00000137,-0.00003082,0.00003932,-0.00008021,-0.
 00012315,-0.00001579,-0.00000453,0.00005217,-0.00001589,0.00001954,0.0
 0002392,-0.00000283,0.00000907,0.00000883,-0.00002527,0.00004554,-0.00
 002335,0.00000280,-0.00001966,-0.00000456,-0.00000151,-0.00000591,0.00
 002362,-0.00001198,-0.00000351,0.00000398,0.00000724,0.00002967,-0.000
 00595,-0.00000025,-0.00000418,-0.00000095,0.00000128,0.00000073,-0.000
 00001,-0.00020896,0.00003524,-0.00003920,0.00000353,0.00001077,-0.0000
 0660,-0.00000613,0.00000228,0.00001679,-0.00012624,0.00051647,-0.00009
 794,0.00000067,-0.00002625,-0.00003304,0.00015094,0.00006803,-0.000022
 08,-0.00000254,0.00032790,0.00017865,-0.00906215,-0.00797771,0.0029485
 4,0.05131863,0.04686855,-0.06932957,0.00070157,-0.00251199,0.00018890,
 -0.00069523,0.00041781,0.00036368,-0.01000388,-0.01036812,0.00351880,0
 .02482446,0.02197152,-0.00746768,-0.05693764,-0.04918779,0.06978716\\-
 0.00000393,0.00000058,0.00000125,-0.00000010,-0.00000145,0.00000081,-0
 .00000497,-0.00000356,-0.00000076,-0.00000165,-0.00000084,-0.00000155,
 0.00000067,0.00000107,0.00000309,0.00000085,0.00000028,-0.00000139,-0.
 00000028,0.00000080,0.00000042,0.00000184,-0.00000044,0.00000102,-0.00
 000002,-0.00000031,0.00000065,-0.00000101,0.00000061,0.00000157,-0.000
 00025,0.00002056,-0.00000171,0.00000130,-0.00000049,0.00000535,-0.0000
 0606,0.00001069,-0.00000715,-0.00000211,-0.00001068,0.00000586,0.00000
 152,-0.00000090,-0.00000219,0.00000399,-0.00000045,-0.00000073,0.00000
 014,0.00000166,0.00000102,0.00000615,-0.00001291,0.00001002,0.00000333
 ,0.00000477,-0.00000228,0.00000021,-0.00000164,-0.00000989,-0.00000133
 ,-0.00000148,-0.00000700,0.00000220,0.00000010,-0.00000318,-0.00000128
 ,-0.00000137,-0.00000007,0.00000096,0.00000157,0.00000051,-0.00000252,
 -0.00000774,0.00000067,0.00000104,-0.00000024,-0.00000023,0.00000045,-
 0.00000088,-0.00000056,0.00000067,0.00000292,-0.00000314,-0.00000112,-
 0.00000026,0.00000034,0.00000036,-0.00000064,-0.00000044,0.00000008,0.
 00000091,0.00000051,0.00000144,0.00000075,0.00000231,-0.00000031,-0.00
 000030,0.00000186,0.00000007,-0.00000134,0.00000112,-0.00000100,0.0000
 0021,0.00000089,0.00000020,0.00000073,0.00000110,0.00000008,-0.0000004
 1,0.00000076,0.00000038,0.00000012,0.00000116\\\@
 The archive entry for this job was punched.


 I DON'T PRETEND TO UNDERSTAND THE UNIVERSE --
 IT'S A GREAT DEAL BIGGER THAN I AM.
       -- ATTR. TO WILLIAM ALLINGHAM (1828-89)
 Job cpu time:       0 days  3 hours 48 minutes 27.5 seconds.
 Elapsed time:       0 days  0 hours  2 minutes 33.5 seconds.
 File lengths (MBytes):  RWF=    962 Int=      0 D2E=      0 Chk=     14 Scr=      1
 Normal termination of Gaussian 16 at Fri Nov 21 14:04:34 2025.
