 Entering Gaussian System, Link 0=g16
 Initial command:
 /public/software/g16/l1.exe "/tmp/Gau-63554.inp" -scrdir="/tmp/"
 Entering Link 1 = /public/software/g16/l1.exe PID=     63555.
  
 Copyright (c) 1988-2021, Gaussian, Inc.  All Rights Reserved.
  
 This is part of the Gaussian(R) 16 program.  It is based on
 the Gaussian(R) 09 system (copyright 2009, Gaussian, Inc.),
 the Gaussian(R) 03 system (copyright 2003, Gaussian, Inc.),
 the Gaussian(R) 98 system (copyright 1998, Gaussian, Inc.),
 the Gaussian(R) 94 system (copyright 1995, Gaussian, Inc.),
 the Gaussian 92(TM) system (copyright 1992, Gaussian, Inc.),
 the Gaussian 90(TM) system (copyright 1990, Gaussian, Inc.),
 the Gaussian 88(TM) system (copyright 1988, Gaussian, Inc.),
 the Gaussian 86(TM) system (copyright 1986, Carnegie Mellon
 University), and the Gaussian 82(TM) system (copyright 1983,
 Carnegie Mellon University). Gaussian is a federally registered
 trademark of Gaussian, Inc.
  
 This software contains proprietary and confidential information,
 including trade secrets, belonging to Gaussian, Inc.
  
 This software is provided under written license and may be
 used, copied, transmitted, or stored only in accord with that
 written license.
  
 The following legend is applicable only to US Government
 contracts under FAR:
  
                    RESTRICTED RIGHTS LEGEND
  
 Use, reproduction and disclosure by the US Government is
 subject to restrictions as set forth in subparagraphs (a)
 and (c) of the Commercial Computer Software - Restricted
 Rights clause in FAR 52.227-19.
  
 Gaussian, Inc.
 340 Quinnipiac St., Bldg. 40, Wallingford CT 06492
  
  
 ---------------------------------------------------------------
 Warning -- This program may not be used in any manner that
 competes with the business of Gaussian, Inc. or will provide
 assistance to any competitor of Gaussian, Inc.  The licensee
 of this program is prohibited from giving any competitor of
 Gaussian, Inc. access to this program.  By using this program,
 the user acknowledges that Gaussian, Inc. is engaged in the
 business of creating and licensing software in the field of
 computational chemistry and represents and warrants to the
 licensee that it is not a competitor of Gaussian, Inc. and that
 it will not use this program in any manner prohibited above.
 ---------------------------------------------------------------
  

 Cite this work as:
 Gaussian 16, Revision C.02,
 M. J. Frisch, G. W. Trucks, H. B. Schlegel, G. E. Scuseria, 
 M. A. Robb, J. R. Cheeseman, G. Scalmani, V. Barone, 
 G. A. Petersson, H. Nakatsuji, X. Li, M. Caricato, A. V. Marenich, 
 J. Bloino, B. G. Janesko, R. Gomperts, B. Mennucci, H. P. Hratchian, 
 J. V. Ortiz, A. F. Izmaylov, J. L. Sonnenberg, D. Williams-Young, 
 F. Ding, F. Lipparini, F. Egidi, J. Goings, B. Peng, A. Petrone, 
 T. Henderson, D. Ranasinghe, V. G. Zakrzewski, J. Gao, N. Rega, 
 G. Zheng, W. Liang, M. Hada, M. Ehara, K. Toyota, R. Fukuda, 
 J. Hasegawa, M. Ishida, T. Nakajima, Y. Honda, O. Kitao, H. Nakai, 
 T. Vreven, K. Throssell, J. A. Montgomery, Jr., J. E. Peralta, 
 F. Ogliaro, M. J. Bearpark, J. J. Heyd, E. N. Brothers, K. N. Kudin, 
 V. N. Staroverov, T. A. Keith, R. Kobayashi, J. Normand, 
 K. Raghavachari, A. P. Rendell, J. C. Burant, S. S. Iyengar, 
 J. Tomasi, M. Cossi, J. M. Millam, M. Klene, C. Adamo, R. Cammi, 
 J. W. Ochterski, R. L. Martin, K. Morokuma, O. Farkas, 
 J. B. Foresman, and D. J. Fox, Gaussian, Inc., Wallingford CT, 2019.
 
 ******************************************
 Gaussian 16:  ES64L-G16RevC.02  7-Dec-2021
                21-Nov-2025 
 ******************************************
 %nprocshared=96
 Will use up to   96 processors via shared memory.
 %mem=10GB
 %chk=IM3.chk
 -------------------------
 # opt freq 6-31g(d) m062x
 -------------------------
 1/18=20,19=15,26=3,38=1/1,3;
 2/9=110,12=2,17=6,18=5,40=1/2;
 3/5=1,6=6,7=1,11=2,25=1,30=1,71=1,74=-55/1,2,3;
 4//1;
 5/5=2,38=5/2;
 6/7=2,8=2,9=2,10=2,28=1/1;
 7//1,2,3,16;
 1/18=20,19=15,26=3/3(2);
 2/9=110/2;
 99//99;
 2/9=110/2;
 3/5=1,6=6,7=1,11=2,25=1,30=1,71=1,74=-55/1,2,3;
 4/5=5,16=3,69=1/1;
 5/5=2,38=5/2;
 7//1,2,3,16;
 1/18=20,19=15,26=3/3(-5);
 2/9=110/2;
 6/7=2,8=2,9=2,10=2,19=2,28=1/1;
 99/9=1/99;
 -------------------
 Title Card Required
 -------------------
 Symbolic Z-matrix:
 Charge =  0 Multiplicity = 2
 C                    -2.88746  -2.04387  -1.42635 
 C                    -2.04725  -1.09637  -0.82926 
 C                    -2.23946  -0.73585   0.51788 
 C                    -3.25795  -1.28153   1.30255 
 C                    -4.08005  -2.21813   0.69166 
 C                    -3.89778  -2.59571  -0.65355 
 H                    -2.74423  -2.32854  -2.46395 
 H                    -3.41005  -0.99      2.33673 
 H                    -4.885    -2.66831   1.26376 
 H                    -4.56542  -3.33174  -1.08993 
 N                    -1.25313   0.19337   0.79054 
 N                    -0.98191  -0.39033  -1.35892 
 C                    -0.54583   0.36648  -0.37702 
 C                    -1.10953   0.88713   2.05948 
 H                    -1.63919   1.84453   2.04903 
 H                    -1.52564   0.25683   2.84623 
 H                    -0.05748   1.05677   2.28473 
 S                     3.80579  -1.26442   0.33651 
 O                     4.06691  -2.58153  -0.27903 
 O                     4.80998  -0.18614   0.22468 
 C                     2.25418  -0.63756  -0.40761 
 C                     1.90029   0.73644   0.13754 
 H                     1.50571  -1.4027   -0.19013 
 H                     2.45488  -0.62773  -1.4841 
 C                     0.63162   1.29043  -0.53839 
 H                     1.76937   0.68379   1.22415 
 H                     2.72629   1.42756  -0.05554 
 C                     0.35876   2.74263  -0.11353 
 H                     0.81126   1.29238  -1.62013 
 H                     0.3506    2.8328    0.97942 
 H                     1.20407   3.35033  -0.45958 
 C                    -0.94012   3.3079   -0.68635 
 C                    -1.13629   4.77563  -0.31654 
 H                    -1.79229   2.71986  -0.32067 
 H                    -0.93295   3.19187  -1.77756 
 H                    -2.07005   5.16867  -0.72784 
 H                    -1.16781   4.90059   0.7712 
 H                    -0.31343   5.38808  -0.69948 
 

 GradGradGradGradGradGradGradGradGradGradGradGradGradGradGradGradGradGrad
 Berny optimization.
 Initialization pass.
                           ----------------------------
                           !    Initial Parameters    !
                           ! (Angstroms and Degrees)  !
 --------------------------                            --------------------------
 ! Name  Definition              Value          Derivative Info.                !
 --------------------------------------------------------------------------------
 ! R1    R(1,2)                  1.4001         estimate D2E/DX2                !
 ! R2    R(1,6)                  1.3865         estimate D2E/DX2                !
 ! R3    R(1,7)                  1.0854         estimate D2E/DX2                !
 ! R4    R(2,3)                  1.4077         estimate D2E/DX2                !
 ! R5    R(2,12)                 1.3835         estimate D2E/DX2                !
 ! R6    R(3,4)                  1.3967         estimate D2E/DX2                !
 ! R7    R(3,11)                 1.3823         estimate D2E/DX2                !
 ! R8    R(4,5)                  1.3879         estimate D2E/DX2                !
 ! R9    R(4,8)                  1.0852         estimate D2E/DX2                !
 ! R10   R(5,6)                  1.409          estimate D2E/DX2                !
 ! R11   R(5,9)                  1.0853         estimate D2E/DX2                !
 ! R12   R(6,10)                 1.0853         estimate D2E/DX2                !
 ! R13   R(11,13)                1.376          estimate D2E/DX2                !
 ! R14   R(11,14)                1.4533         estimate D2E/DX2                !
 ! R15   R(12,13)                1.3142         estimate D2E/DX2                !
 ! R16   R(13,25)                1.5054         estimate D2E/DX2                !
 ! R17   R(14,15)                1.0942         estimate D2E/DX2                !
 ! R18   R(14,16)                1.0906         estimate D2E/DX2                !
 ! R19   R(14,17)                1.0892         estimate D2E/DX2                !
 ! R20   R(18,19)                1.4771         estimate D2E/DX2                !
 ! R21   R(18,20)                1.4777         estimate D2E/DX2                !
 ! R22   R(18,21)                1.8314         estimate D2E/DX2                !
 ! R23   R(21,22)                1.52           estimate D2E/DX2                !
 ! R24   R(21,23)                1.0922         estimate D2E/DX2                !
 ! R25   R(21,24)                1.0951         estimate D2E/DX2                !
 ! R26   R(22,25)                1.5406         estimate D2E/DX2                !
 ! R27   R(22,26)                1.0957         estimate D2E/DX2                !
 ! R28   R(22,27)                1.0942         estimate D2E/DX2                !
 ! R29   R(25,28)                1.5375         estimate D2E/DX2                !
 ! R30   R(25,29)                1.0966         estimate D2E/DX2                !
 ! R31   R(28,30)                1.0967         estimate D2E/DX2                !
 ! R32   R(28,31)                1.0971         estimate D2E/DX2                !
 ! R33   R(28,32)                1.528          estimate D2E/DX2                !
 ! R34   R(32,33)                1.5263         estimate D2E/DX2                !
 ! R35   R(32,34)                1.098          estimate D2E/DX2                !
 ! R36   R(32,35)                1.0974         estimate D2E/DX2                !
 ! R37   R(33,36)                1.0934         estimate D2E/DX2                !
 ! R38   R(33,37)                1.0953         estimate D2E/DX2                !
 ! R39   R(33,38)                1.0949         estimate D2E/DX2                !
 ! A1    A(2,1,6)              117.9647         estimate D2E/DX2                !
 ! A2    A(2,1,7)              120.3961         estimate D2E/DX2                !
 ! A3    A(6,1,7)              121.639          estimate D2E/DX2                !
 ! A4    A(1,2,3)              119.9663         estimate D2E/DX2                !
 ! A5    A(1,2,12)             130.1071         estimate D2E/DX2                !
 ! A6    A(3,2,12)             109.9264         estimate D2E/DX2                !
 ! A7    A(2,3,4)              122.4884         estimate D2E/DX2                !
 ! A8    A(2,3,11)             105.2778         estimate D2E/DX2                !
 ! A9    A(4,3,11)             132.2338         estimate D2E/DX2                !
 ! A10   A(3,4,5)              116.635          estimate D2E/DX2                !
 ! A11   A(3,4,8)              122.1834         estimate D2E/DX2                !
 ! A12   A(5,4,8)              121.1807         estimate D2E/DX2                !
 ! A13   A(4,5,6)              121.6299         estimate D2E/DX2                !
 ! A14   A(4,5,9)              119.1579         estimate D2E/DX2                !
 ! A15   A(6,5,9)              119.2119         estimate D2E/DX2                !
 ! A16   A(1,6,5)              121.3135         estimate D2E/DX2                !
 ! A17   A(1,6,10)             119.6073         estimate D2E/DX2                !
 ! A18   A(5,6,10)             119.079          estimate D2E/DX2                !
 ! A19   A(3,11,13)            106.4979         estimate D2E/DX2                !
 ! A20   A(3,11,14)            124.308          estimate D2E/DX2                !
 ! A21   A(13,11,14)           129.0514         estimate D2E/DX2                !
 ! A22   A(2,12,13)            105.2701         estimate D2E/DX2                !
 ! A23   A(11,13,12)           113.0143         estimate D2E/DX2                !
 ! A24   A(11,13,25)           124.7655         estimate D2E/DX2                !
 ! A25   A(12,13,25)           122.2025         estimate D2E/DX2                !
 ! A26   A(11,14,15)           111.1936         estimate D2E/DX2                !
 ! A27   A(11,14,16)           108.4384         estimate D2E/DX2                !
 ! A28   A(11,14,17)           110.5087         estimate D2E/DX2                !
 ! A29   A(15,14,16)           109.1406         estimate D2E/DX2                !
 ! A30   A(15,14,17)           109.4668         estimate D2E/DX2                !
 ! A31   A(16,14,17)           108.0205         estimate D2E/DX2                !
 ! A32   A(19,18,20)           119.9334         estimate D2E/DX2                !
 ! A33   A(19,18,21)           106.598          estimate D2E/DX2                !
 ! A34   A(20,18,21)           107.1712         estimate D2E/DX2                !
 ! A35   A(18,21,22)           111.1578         estimate D2E/DX2                !
 ! A36   A(18,21,23)           105.0638         estimate D2E/DX2                !
 ! A37   A(18,21,24)           104.3119         estimate D2E/DX2                !
 ! A38   A(22,21,23)           113.7217         estimate D2E/DX2                !
 ! A39   A(22,21,24)           112.7758         estimate D2E/DX2                !
 ! A40   A(23,21,24)           109.1244         estimate D2E/DX2                !
 ! A41   A(21,22,25)           111.0661         estimate D2E/DX2                !
 ! A42   A(21,22,26)           109.8799         estimate D2E/DX2                !
 ! A43   A(21,22,27)           109.3858         estimate D2E/DX2                !
 ! A44   A(25,22,26)           110.7316         estimate D2E/DX2                !
 ! A45   A(25,22,27)           108.4891         estimate D2E/DX2                !
 ! A46   A(26,22,27)           107.1897         estimate D2E/DX2                !
 ! A47   A(13,25,22)           112.1098         estimate D2E/DX2                !
 ! A48   A(13,25,28)           114.2863         estimate D2E/DX2                !
 ! A49   A(13,25,29)           103.5904         estimate D2E/DX2                !
 ! A50   A(22,25,28)           111.3808         estimate D2E/DX2                !
 ! A51   A(22,25,29)           107.3704         estimate D2E/DX2                !
 ! A52   A(28,25,29)           107.4574         estimate D2E/DX2                !
 ! A53   A(25,28,30)           110.7548         estimate D2E/DX2                !
 ! A54   A(25,28,31)           107.4153         estimate D2E/DX2                !
 ! A55   A(25,28,32)           113.3717         estimate D2E/DX2                !
 ! A56   A(30,28,31)           105.9341         estimate D2E/DX2                !
 ! A57   A(30,28,32)           109.6862         estimate D2E/DX2                !
 ! A58   A(31,28,32)           109.3784         estimate D2E/DX2                !
 ! A59   A(28,32,33)           111.974          estimate D2E/DX2                !
 ! A60   A(28,32,34)           109.679          estimate D2E/DX2                !
 ! A61   A(28,32,35)           109.1544         estimate D2E/DX2                !
 ! A62   A(33,32,34)           109.5449         estimate D2E/DX2                !
 ! A63   A(33,32,35)           110.0872         estimate D2E/DX2                !
 ! A64   A(34,32,35)           106.2362         estimate D2E/DX2                !
 ! A65   A(32,33,36)           111.3645         estimate D2E/DX2                !
 ! A66   A(32,33,37)           110.7331         estimate D2E/DX2                !
 ! A67   A(32,33,38)           110.8895         estimate D2E/DX2                !
 ! A68   A(36,33,37)           107.9368         estimate D2E/DX2                !
 ! A69   A(36,33,38)           108.0093         estimate D2E/DX2                !
 ! A70   A(37,33,38)           107.766          estimate D2E/DX2                !
 ! D1    D(6,1,2,3)              0.256          estimate D2E/DX2                !
 ! D2    D(6,1,2,12)          -179.5361         estimate D2E/DX2                !
 ! D3    D(7,1,2,3)           -179.8703         estimate D2E/DX2                !
 ! D4    D(7,1,2,12)             0.3377         estimate D2E/DX2                !
 ! D5    D(2,1,6,5)              0.0681         estimate D2E/DX2                !
 ! D6    D(2,1,6,10)           179.917          estimate D2E/DX2                !
 ! D7    D(7,1,6,5)           -179.8041         estimate D2E/DX2                !
 ! D8    D(7,1,6,10)             0.0449         estimate D2E/DX2                !
 ! D9    D(1,2,3,4)             -0.5682         estimate D2E/DX2                !
 ! D10   D(1,2,3,11)           179.484          estimate D2E/DX2                !
 ! D11   D(12,2,3,4)           179.2627         estimate D2E/DX2                !
 ! D12   D(12,2,3,11)           -0.6851         estimate D2E/DX2                !
 ! D13   D(1,2,12,13)          179.7909         estimate D2E/DX2                !
 ! D14   D(3,2,12,13)           -0.0176         estimate D2E/DX2                !
 ! D15   D(2,3,4,5)              0.5165         estimate D2E/DX2                !
 ! D16   D(2,3,4,8)           -179.1472         estimate D2E/DX2                !
 ! D17   D(11,3,4,5)          -179.5515         estimate D2E/DX2                !
 ! D18   D(11,3,4,8)             0.7848         estimate D2E/DX2                !
 ! D19   D(2,3,11,13)            1.0857         estimate D2E/DX2                !
 ! D20   D(2,3,11,14)          177.0823         estimate D2E/DX2                !
 ! D21   D(4,3,11,13)         -178.8549         estimate D2E/DX2                !
 ! D22   D(4,3,11,14)           -2.8583         estimate D2E/DX2                !
 ! D23   D(3,4,5,6)             -0.1804         estimate D2E/DX2                !
 ! D24   D(3,4,5,9)           -179.9892         estimate D2E/DX2                !
 ! D25   D(8,4,5,6)            179.4869         estimate D2E/DX2                !
 ! D26   D(8,4,5,9)             -0.3218         estimate D2E/DX2                !
 ! D27   D(4,5,6,1)             -0.1064         estimate D2E/DX2                !
 ! D28   D(4,5,6,10)          -179.9562         estimate D2E/DX2                !
 ! D29   D(9,5,6,1)            179.7022         estimate D2E/DX2                !
 ! D30   D(9,5,6,10)            -0.1475         estimate D2E/DX2                !
 ! D31   D(3,11,13,12)          -1.1981         estimate D2E/DX2                !
 ! D32   D(3,11,13,25)        -179.6876         estimate D2E/DX2                !
 ! D33   D(14,11,13,12)       -176.9394         estimate D2E/DX2                !
 ! D34   D(14,11,13,25)          4.5711         estimate D2E/DX2                !
 ! D35   D(3,11,14,15)         -92.7641         estimate D2E/DX2                !
 ! D36   D(3,11,14,16)          27.2345         estimate D2E/DX2                !
 ! D37   D(3,11,14,17)         145.4557         estimate D2E/DX2                !
 ! D38   D(13,11,14,15)         82.2909         estimate D2E/DX2                !
 ! D39   D(13,11,14,16)       -157.7106         estimate D2E/DX2                !
 ! D40   D(13,11,14,17)        -39.4894         estimate D2E/DX2                !
 ! D41   D(2,12,13,11)           0.7507         estimate D2E/DX2                !
 ! D42   D(2,12,13,25)         179.2843         estimate D2E/DX2                !
 ! D43   D(11,13,25,22)         74.0734         estimate D2E/DX2                !
 ! D44   D(11,13,25,28)        -53.8802         estimate D2E/DX2                !
 ! D45   D(11,13,25,29)       -170.4757         estimate D2E/DX2                !
 ! D46   D(12,13,25,22)       -104.2836         estimate D2E/DX2                !
 ! D47   D(12,13,25,28)        127.7629         estimate D2E/DX2                !
 ! D48   D(12,13,25,29)         11.1674         estimate D2E/DX2                !
 ! D49   D(19,18,21,22)       -178.8931         estimate D2E/DX2                !
 ! D50   D(19,18,21,23)         57.6788         estimate D2E/DX2                !
 ! D51   D(19,18,21,24)        -57.0806         estimate D2E/DX2                !
 ! D52   D(20,18,21,22)        -49.3183         estimate D2E/DX2                !
 ! D53   D(20,18,21,23)       -172.7464         estimate D2E/DX2                !
 ! D54   D(20,18,21,24)         72.4942         estimate D2E/DX2                !
 ! D55   D(18,21,22,25)        177.3141         estimate D2E/DX2                !
 ! D56   D(18,21,22,26)        -59.8206         estimate D2E/DX2                !
 ! D57   D(18,21,22,27)         57.5916         estimate D2E/DX2                !
 ! D58   D(23,21,22,25)        -64.3613         estimate D2E/DX2                !
 ! D59   D(23,21,22,26)         58.504          estimate D2E/DX2                !
 ! D60   D(23,21,22,27)        175.9163         estimate D2E/DX2                !
 ! D61   D(24,21,22,25)         60.5714         estimate D2E/DX2                !
 ! D62   D(24,21,22,26)       -176.5633         estimate D2E/DX2                !
 ! D63   D(24,21,22,27)        -59.1511         estimate D2E/DX2                !
 ! D64   D(21,22,25,13)         57.1028         estimate D2E/DX2                !
 ! D65   D(21,22,25,28)       -173.4174         estimate D2E/DX2                !
 ! D66   D(21,22,25,29)        -56.028          estimate D2E/DX2                !
 ! D67   D(26,22,25,13)        -65.27           estimate D2E/DX2                !
 ! D68   D(26,22,25,28)         64.2098         estimate D2E/DX2                !
 ! D69   D(26,22,25,29)       -178.4009         estimate D2E/DX2                !
 ! D70   D(27,22,25,13)        177.3584         estimate D2E/DX2                !
 ! D71   D(27,22,25,28)        -53.1618         estimate D2E/DX2                !
 ! D72   D(27,22,25,29)         64.2276         estimate D2E/DX2                !
 ! D73   D(13,25,28,30)         75.88           estimate D2E/DX2                !
 ! D74   D(13,25,28,31)       -168.8707         estimate D2E/DX2                !
 ! D75   D(13,25,28,32)        -47.9145         estimate D2E/DX2                !
 ! D76   D(22,25,28,30)        -52.4438         estimate D2E/DX2                !
 ! D77   D(22,25,28,31)         62.8055         estimate D2E/DX2                !
 ! D78   D(22,25,28,32)       -176.2383         estimate D2E/DX2                !
 ! D79   D(29,25,28,30)       -169.7804         estimate D2E/DX2                !
 ! D80   D(29,25,28,31)        -54.5311         estimate D2E/DX2                !
 ! D81   D(29,25,28,32)         66.4251         estimate D2E/DX2                !
 ! D82   D(25,28,32,33)       -176.4584         estimate D2E/DX2                !
 ! D83   D(25,28,32,34)         61.7092         estimate D2E/DX2                !
 ! D84   D(25,28,32,35)        -54.3033         estimate D2E/DX2                !
 ! D85   D(30,28,32,33)         59.1655         estimate D2E/DX2                !
 ! D86   D(30,28,32,34)        -62.6669         estimate D2E/DX2                !
 ! D87   D(30,28,32,35)       -178.6794         estimate D2E/DX2                !
 ! D88   D(31,28,32,33)        -56.6151         estimate D2E/DX2                !
 ! D89   D(31,28,32,34)       -178.4475         estimate D2E/DX2                !
 ! D90   D(31,28,32,35)         65.54           estimate D2E/DX2                !
 ! D91   D(28,32,33,36)       -179.7709         estimate D2E/DX2                !
 ! D92   D(28,32,33,37)        -59.6608         estimate D2E/DX2                !
 ! D93   D(28,32,33,38)         59.9219         estimate D2E/DX2                !
 ! D94   D(34,32,33,36)        -57.8617         estimate D2E/DX2                !
 ! D95   D(34,32,33,37)         62.2484         estimate D2E/DX2                !
 ! D96   D(34,32,33,38)       -178.1689         estimate D2E/DX2                !
 ! D97   D(35,32,33,36)         58.6085         estimate D2E/DX2                !
 ! D98   D(35,32,33,37)        178.7187         estimate D2E/DX2                !
 ! D99   D(35,32,33,38)        -61.6987         estimate D2E/DX2                !
 --------------------------------------------------------------------------------
 Trust Radius=3.00D-01 FncErr=1.00D-07 GrdErr=1.00D-06 EigMax=2.50D+02 EigMin=1.00D-04
 Number of steps in this run=    218 maximum allowed number of steps=    228.
 GradGradGradGradGradGradGradGradGradGradGradGradGradGradGradGradGradGrad

                          Input orientation:                          
 ---------------------------------------------------------------------
 Center     Atomic      Atomic             Coordinates (Angstroms)
 Number     Number       Type             X           Y           Z
 ---------------------------------------------------------------------
      1          6           0       -2.887457   -2.043869   -1.426352
      2          6           0       -2.047253   -1.096366   -0.829262
      3          6           0       -2.239457   -0.735853    0.517881
      4          6           0       -3.257952   -1.281530    1.302552
      5          6           0       -4.080052   -2.218131    0.691660
      6          6           0       -3.897777   -2.595713   -0.653549
      7          1           0       -2.744228   -2.328542   -2.463949
      8          1           0       -3.410046   -0.989995    2.336727
      9          1           0       -4.884998   -2.668311    1.263757
     10          1           0       -4.565421   -3.331741   -1.089929
     11          7           0       -1.253126    0.193366    0.790541
     12          7           0       -0.981905   -0.390330   -1.358918
     13          6           0       -0.545832    0.366477   -0.377021
     14          6           0       -1.109534    0.887131    2.059482
     15          1           0       -1.639194    1.844526    2.049033
     16          1           0       -1.525641    0.256827    2.846234
     17          1           0       -0.057477    1.056770    2.284731
     18         16           0        3.805794   -1.264415    0.336508
     19          8           0        4.066911   -2.581530   -0.279028
     20          8           0        4.809983   -0.186143    0.224676
     21          6           0        2.254180   -0.637558   -0.407611
     22          6           0        1.900288    0.736444    0.137536
     23          1           0        1.505708   -1.402696   -0.190132
     24          1           0        2.454884   -0.627729   -1.484095
     25          6           0        0.631615    1.290431   -0.538389
     26          1           0        1.769374    0.683790    1.224152
     27          1           0        2.726290    1.427562   -0.055540
     28          6           0        0.358756    2.742628   -0.113533
     29          1           0        0.811263    1.292378   -1.620131
     30          1           0        0.350599    2.832797    0.979418
     31          1           0        1.204071    3.350334   -0.459578
     32          6           0       -0.940115    3.307897   -0.686353
     33          6           0       -1.136291    4.775633   -0.316543
     34          1           0       -1.792288    2.719864   -0.320671
     35          1           0       -0.932953    3.191868   -1.777559
     36          1           0       -2.070050    5.168673   -0.727841
     37          1           0       -1.167809    4.900587    0.771196
     38          1           0       -0.313426    5.388081   -0.699483
 ---------------------------------------------------------------------
                    Distance matrix (angstroms):
                    1          2          3          4          5
     1  C    0.000000
     2  C    1.400079   0.000000
     3  C    2.431224   1.407731   0.000000
     4  C    2.857507   2.458599   1.396712   0.000000
     5  C    2.436929   2.775578   2.369628   1.387897   0.000000
     6  C    1.386543   2.388170   2.753426   2.441881   1.409035
     7  H    1.085431   2.162460   3.418006   3.942927   3.428481
     8  H    3.942653   3.448479   2.177858   1.085193   2.159507
     9  H    3.408340   3.860639   3.360002   2.138211   1.085309
    10  H    2.141812   3.377280   3.838463   3.411276   2.156332
    11  N    3.548362   2.217613   1.382259   2.541024   3.717070
    12  N    2.523860   1.383470   2.285432   3.613592   4.140561
    13  C    3.520521   2.144457   2.210056   3.590611   4.506993
    14  C    4.889050   3.627454   2.507456   3.145113   4.509719
    15  H    5.362469   4.135207   3.059918   3.598588   4.930054
    16  H    5.040113   3.951263   2.629862   2.783954   4.158440
    17  H    5.603114   4.276933   3.331110   4.083548   5.426229
    18  S    6.965259   5.970378   6.071024   7.129519   7.951244
    19  O    7.068852   6.315970   6.619053   7.605591   8.212631
    20  O    8.088734   6.997212   7.076917   8.212994   9.131252
    21  C    5.426967   4.346334   4.589005   5.807147   6.620355
    22  C    5.753120   4.458360   4.410194   5.660117   6.693357
    23  H    4.608605   3.622962   3.869396   4.993520   5.713423
    24  H    5.527151   4.573583   5.104551   6.389785   7.068853
    25  C    4.928479   3.599686   3.669412   5.013260   6.001903
    26  H    6.012601   4.685307   4.311024   5.398392   6.551372
    27  H    6.741225   5.454867   5.446817   6.707812   7.757298
    28  C    5.930594   4.586831   4.387394   5.592828   6.705258
    29  H    4.984839   3.808239   4.241663   5.632547   6.449265
    30  H    6.328871   4.945638   4.433584   5.482129   6.724979
    31  H    6.839055   5.520952   5.432332   6.668502   7.762416
    32  C    5.742921   4.543535   4.414791   5.512799   6.503469
    33  C    7.127683   5.964319   5.682404   6.619074   7.654733
    34  H    5.011495   3.858404   3.584007   4.560063   5.535564
    35  H    5.599676   4.530991   4.733180   5.907960   6.728251
    36  H    7.292245   6.265901   6.036882   6.865765   7.785882
    37  H    7.484108   6.268838   5.743000   6.547489   7.691790
    38  H    7.898598   6.713498   6.534075   7.560561   8.601001
                    6          7          8          9         10
     6  C    0.000000
     7  H    2.163239   0.000000
     8  H    3.428989   5.028072   0.000000
     9  H    2.157762   4.312091   2.478607   0.000000
    10  H    1.085317   2.492204   4.308206   2.466193   0.000000
    11  N    4.105915   4.378939   2.905742   4.647970   5.189783
    12  N    3.723381   2.843157   4.462427   5.225108   4.643904
    13  C    4.481805   4.056025   4.172309   5.543505   5.508371
    14  C    5.221593   5.785690   2.982084   5.246758   6.297684
    15  H    5.667528   6.245206   3.354578   5.614054   6.723810
    16  H    5.100245   6.030517   2.316278   4.727150   6.132818
    17  H    6.059870   6.420976   3.928316   6.182522   7.139252
    18  S    7.880201   7.202619   7.492965   8.852151   8.739897
    19  O    7.973501   7.157478   8.079607   9.084294   8.702731
    20  O    9.077576   8.299680   8.525011  10.061486   9.976030
    21  C    6.460761   5.663218   6.303892   7.608238   7.364179
    22  C    6.733992   6.142751   6.001390   7.674688   7.737066
    23  H    5.552990   4.908094   5.542560   6.675080   6.433464
    24  H    6.702169   5.557305   7.009088   8.098675   7.533374
    25  C    5.969151   5.310467   5.459090   7.025125   6.976952
    26  H    6.811571   6.561161   5.555697   7.451095   7.849146
    27  H    7.773199   7.059413   7.015849   8.743479   8.768693
    28  C    6.848911   6.392944   5.842954   7.659774   7.880281
    29  H    6.182766   5.144376   6.219759   7.513405   7.111422
    30  H    7.084067   6.933553   5.531589   7.599639   8.151747
    31  H    7.837216   7.201125   6.924439   8.733312   8.850678
    32  C    6.603140   6.179330   5.806156   7.421596   7.575652
    33  C    7.878840   7.593821   6.741830   8.483069   8.836661
    34  H    5.727063   5.566528   4.841690   6.411528   6.701041
    35  H    6.599218   5.850365   6.367992   7.694801   7.498342
    36  H    7.976954   7.725077   7.008306   8.562051   8.866511
    37  H    8.104143   8.075368   6.494418   8.446794   9.098284
    38  H    8.751608   8.280604   7.712813   9.468845   9.709130
                   11         12         13         14         15
    11  N    0.000000
    12  N    2.243755   0.000000
    13  C    1.376021   1.314168   0.000000
    14  C    1.453320   3.651528   2.554484   0.000000
    15  H    2.111677   4.128043   3.043979   1.094191   0.000000
    16  H    2.074648   4.289262   3.370671   1.090599   1.780228
    17  H    2.099440   4.028007   2.792833   1.089192   1.782678
    18  S    5.284311   5.153693   4.701657   5.635445   6.499704
    19  O    6.094819   5.608749   5.475194   6.655511   7.587455
    20  O    6.101272   6.007947   5.417765   6.289603   7.003126
    21  C    3.798315   3.382063   2.974742   4.441373   5.230124
    22  C    3.265788   3.437445   2.526885   3.574299   4.172481
    23  H    3.334711   2.929021   2.715459   4.140478   5.044672
    24  H    4.426907   3.447252   3.349381   5.249458   5.946134
    25  C    2.553792   2.470156   1.505361   3.153282   3.486882
    26  H    3.092578   3.923713   2.832776   3.004536   3.694059
    27  H    4.251452   4.330616   3.454857   4.413494   4.864210
    28  C    3.148690   3.628193   2.556130   3.212591   3.078162
    29  H    3.358700   2.472891   2.060175   4.170520   4.446613
    30  H    3.094221   4.199039   2.954023   2.661605   2.465772
    31  H    4.191308   4.424915   3.460113   4.214950   4.079797
    32  C    3.461141   3.759119   2.983806   3.664481   3.180016
    33  C    4.715555   5.272339   4.448928   4.557045   3.800033
    34  H    2.812238   3.377571   2.663693   3.080615   2.530840
    35  H    3.960892   3.606910   3.177138   4.479495   4.117877
    36  H    5.265599   5.699547   5.050485   5.198400   4.352771
    37  H    4.708034   5.706641   4.718412   4.215555   3.345830
    38  H    5.485278   5.854208   5.037311   5.338935   4.676407
                   16         17         18         19         20
    16  H    0.000000
    17  H    1.763718   0.000000
    18  S    6.085811   4.910024   0.000000
    19  O    7.007151   6.068003   1.477112   0.000000
    20  O    6.870875   5.429625   1.477692   2.558076   0.000000
    21  C    5.066999   3.932329   1.831439   2.661119   2.671271
    22  C    4.393639   2.923337   2.770195   3.984562   3.053700
    23  H    4.600284   3.823280   2.363655   2.820871   3.545462
    24  H    5.948005   4.832550   2.354766   2.805023   2.943024
    25  C    4.144607   2.915382   4.167505   5.182722   4.496810
    26  H    3.697374   2.145070   2.954729   4.266209   3.316781
    27  H    5.279188   3.655641   2.926734   4.233206   2.650347
    28  C    4.300044   2.960918   5.304809   6.490336   5.339055
    29  H    5.146057   4.007264   4.396913   5.234975   4.645331
    30  H    3.693359   2.241571   5.398041   6.686524   5.437807
    31  H    5.286729   3.792515   5.357110   6.589041   5.096810
    32  C    4.704364   3.830661   6.669028   7.740903   6.789839
    33  C    5.529409   4.664805   7.831530   9.011247   7.763396
    34  H    4.020813   3.544513   6.902527   7.901691   7.234104
    35  H    5.508648   4.671970   6.839844   7.783082   6.957098
    36  H    6.098904   5.480309   8.777414   9.895927   8.770188
    37  H    5.098856   4.277681   7.933028   9.191699   7.868132
    38  H    6.353845   5.266051   7.892842   9.103781   7.627278
                   21         22         23         24         25
    21  C    0.000000
    22  C    1.519969   0.000000
    23  H    1.092220   2.199768   0.000000
    24  H    1.095078   2.190487   1.782091   0.000000
    25  C    2.523284   1.540554   2.852763   2.810339   0.000000
    26  H    2.154913   1.095740   2.534392   3.086196   2.183818
    27  H    2.147455   1.094167   3.085174   2.517668   2.153976
    28  C    3.886486   2.542465   4.301753   4.198988   1.537475
    29  H    2.697567   2.141129   3.128989   2.531167   1.096560
    30  H    4.194143   2.739525   4.543295   4.740480   2.182109
    31  H    4.124162   2.770142   4.770208   4.294084   2.139420
    32  C    5.084076   3.919063   5.330851   5.258475   2.561718
    33  C    6.387975   5.073662   6.720706   6.592119   3.914248
    34  H    5.258683   4.216518   5.281034   5.531582   2.822408
    35  H    5.167115   4.209982   5.438475   5.113989   2.756606
    36  H    7.246643   6.013079   7.500538   7.392241   4.730290
    37  H    6.615939   5.211030   6.913987   6.983733   4.241010
    38  H    6.556380   5.219086   7.048641   6.668518   4.208300
                   26         27         28         29         30
    26  H    0.000000
    27  H    1.762526   0.000000
    28  C    2.831618   2.708870   0.000000
    29  H    3.062401   2.476600   2.139585   0.000000
    30  H    2.586706   2.947835   1.096695   3.056592   0.000000
    31  H    3.203899   2.485448   1.097092   2.395071   1.751276
    32  C    4.228155   4.168466   1.527978   2.828707   2.160198
    33  C    5.249744   5.118323   2.531697   4.198258   2.768568
    34  H    4.383778   4.707216   2.161114   3.241109   2.508974
    35  H    4.754292   4.412277   2.153906   2.583628   3.062248
    36  H    6.218169   6.119867   3.487430   4.911599   3.772346
    37  H    5.158836   5.282935   2.787460   4.759658   2.573844
    38  H    5.492612   5.033910   2.791700   4.345952   3.128756
                   31         32         33         34         35
    31  H    0.000000
    32  C    2.156562   0.000000
    33  C    2.743944   1.526268   0.000000
    34  H    3.065119   1.098046   2.157901   0.000000
    35  H    2.515762   1.097381   2.164307   1.756066   0.000000
    36  H    3.754756   2.177375   1.093413   2.497920   2.510509
    37  H    3.089321   2.170934   1.095346   2.517479   3.077504
    38  H    2.552012   2.172574   1.094917   3.074071   2.523770
                   36         37         38
    36  H    0.000000
    37  H    1.770034   0.000000
    38  H    1.770500   1.769327   0.000000
 Stoichiometry    C14H19N2O2S(2)
 Framework group  C1[X(C14H19N2O2S)]
 Deg. of freedom   108
 Full point group                 C1      NOp   1
 Largest Abelian subgroup         C1      NOp   1
 Largest concise Abelian subgroup C1      NOp   1
                         Standard orientation:                         
 ---------------------------------------------------------------------
 Center     Atomic      Atomic             Coordinates (Angstroms)
 Number     Number       Type             X           Y           Z
 ---------------------------------------------------------------------
      1          6           0       -2.887457   -2.043869   -1.426352
      2          6           0       -2.047253   -1.096366   -0.829262
      3          6           0       -2.239457   -0.735853    0.517881
      4          6           0       -3.257952   -1.281530    1.302552
      5          6           0       -4.080052   -2.218131    0.691660
      6          6           0       -3.897777   -2.595713   -0.653549
      7          1           0       -2.744228   -2.328542   -2.463949
      8          1           0       -3.410046   -0.989995    2.336727
      9          1           0       -4.884998   -2.668311    1.263757
     10          1           0       -4.565421   -3.331741   -1.089929
     11          7           0       -1.253126    0.193366    0.790541
     12          7           0       -0.981905   -0.390330   -1.358918
     13          6           0       -0.545832    0.366477   -0.377021
     14          6           0       -1.109534    0.887131    2.059482
     15          1           0       -1.639194    1.844526    2.049033
     16          1           0       -1.525641    0.256827    2.846234
     17          1           0       -0.057477    1.056770    2.284731
     18         16           0        3.805794   -1.264415    0.336508
     19          8           0        4.066911   -2.581530   -0.279028
     20          8           0        4.809983   -0.186143    0.224676
     21          6           0        2.254180   -0.637558   -0.407611
     22          6           0        1.900288    0.736444    0.137536
     23          1           0        1.505708   -1.402696   -0.190132
     24          1           0        2.454884   -0.627729   -1.484095
     25          6           0        0.631615    1.290431   -0.538389
     26          1           0        1.769374    0.683790    1.224152
     27          1           0        2.726290    1.427562   -0.055540
     28          6           0        0.358756    2.742628   -0.113533
     29          1           0        0.811263    1.292378   -1.620131
     30          1           0        0.350599    2.832797    0.979418
     31          1           0        1.204071    3.350334   -0.459578
     32          6           0       -0.940115    3.307897   -0.686353
     33          6           0       -1.136291    4.775633   -0.316543
     34          1           0       -1.792288    2.719864   -0.320671
     35          1           0       -0.932953    3.191868   -1.777559
     36          1           0       -2.070050    5.168673   -0.727841
     37          1           0       -1.167809    4.900587    0.771196
     38          1           0       -0.313426    5.388081   -0.699483
 ---------------------------------------------------------------------
 Rotational constants (GHZ):           0.3893626           0.2173112           0.1584683
 Standard basis: 6-31G(d) (6D, 7F)
 There are   327 symmetry adapted cartesian basis functions of A   symmetry.
 There are   327 symmetry adapted basis functions of A   symmetry.
   327 basis functions,   632 primitive gaussians,   327 cartesian basis functions
    75 alpha electrons       74 beta electrons
       nuclear repulsion energy      1577.4680185689 Hartrees.
 NAtoms=   38 NActive=   38 NUniq=   38 SFac= 1.00D+00 NAtFMM=   60 NAOKFM=F Big=F
 Integral buffers will be    131072 words long.
 Raffenetti 2 integral format.
 Two-electron integral symmetry is turned on.
 One-electron integrals computed using PRISM.
 NBasis=   327 RedAO= T EigKep=  3.79D-04  NBF=   327
 NBsUse=   327 1.00D-06 EigRej= -1.00D+00 NBFU=   327
 ExpMin= 1.17D-01 ExpMax= 2.19D+04 ExpMxC= 3.30D+03 IAcc=3 IRadAn=         5 AccDes= 0.00D+00
 Harris functional with IExCor= 1009 and IRadAn=       5 diagonalized for initial guess.
 HarFok:  IExCor= 1009 AccDes= 0.00D+00 IRadAn=         5 IDoV= 1 UseB2=F ITyADJ=14
 ICtDFT=  3500011 ScaDFX=  1.000000  1.000000  1.000000  1.000000
 FoFCou: FMM=F IPFlag=           0 FMFlag=      100000 FMFlg1=           0
         NFxFlg=           0 DoJE=T BraDBF=F KetDBF=T FulRan=T
         wScrn=  0.000000 ICntrl=       500 IOpCl=  0 I1Cent=   200000004 NGrid=           0
         NMat0=    1 NMatS0=      1 NMatT0=    0 NMatD0=    1 NMtDS0=    0 NMtDT0=    0
 Petite list used in FoFCou.
 Initial guess <Sx>= 0.0000 <Sy>= 0.0000 <Sz>= 0.5000 <S**2>= 0.7500 S= 0.5000
 Requested convergence on RMS density matrix=1.00D-08 within 128 cycles.
 Requested convergence on MAX density matrix=1.00D-06.
 Requested convergence on             energy=1.00D-06.
 No special actions if energy rises.
 Integral accuracy reduced to 1.0D-05 until final iterations.
 Initial convergence to 1.0D-05 achieved.  Increase integral accuracy.
 SCF Done:  E(UM062X) =  -1202.62270334     A.U. after   19 cycles
            NFock= 19  Conv=0.90D-08     -V/T= 2.0068
 <Sx>= 0.0000 <Sy>= 0.0000 <Sz>= 0.5000 <S**2>= 0.7570 S= 0.5035
 <L.S>=  0.00000000000    
 Annihilation of the first spin contaminant:
 S**2 before annihilation     0.7570,   after     0.7500

 **********************************************************************

            Population analysis using the SCF Density.

 **********************************************************************

 Orbital symmetries:
 Alpha Orbitals:
       Occupied  (A) (A) (A) (A) (A) (A) (A) (A) (A) (A) (A) (A)
                 (A) (A) (A) (A) (A) (A) (A) (A) (A) (A) (A) (A)
                 (A) (A) (A) (A) (A) (A) (A) (A) (A) (A) (A) (A)
                 (A) (A) (A) (A) (A) (A) (A) (A) (A) (A) (A) (A)
                 (A) (A) (A) (A) (A) (A) (A) (A) (A) (A) (A) (A)
                 (A) (A) (A) (A) (A) (A) (A) (A) (A) (A) (A) (A)
                 (A) (A) (A)
       Virtual   (A) (A) (A) (A) (A) (A) (A) (A) (A) (A) (A) (A)
                 (A) (A) (A) (A) (A) (A) (A) (A) (A) (A) (A) (A)
                 (A) (A) (A) (A) (A) (A) (A) (A) (A) (A) (A) (A)
                 (A) (A) (A) (A) (A) (A) (A) (A) (A) (A) (A) (A)
                 (A) (A) (A) (A) (A) (A) (A) (A) (A) (A) (A) (A)
                 (A) (A) (A) (A) (A) (A) (A) (A) (A) (A) (A) (A)
                 (A) (A) (A) (A) (A) (A) (A) (A) (A) (A) (A) (A)
                 (A) (A) (A) (A) (A) (A) (A) (A) (A) (A) (A) (A)
                 (A) (A) (A) (A) (A) (A) (A) (A) (A) (A) (A) (A)
                 (A) (A) (A) (A) (A) (A) (A) (A) (A) (A) (A) (A)
                 (A) (A) (A) (A) (A) (A) (A) (A) (A) (A) (A) (A)
                 (A) (A) (A) (A) (A) (A) (A) (A) (A) (A) (A) (A)
                 (A) (A) (A) (A) (A) (A) (A) (A) (A) (A) (A) (A)
                 (A) (A) (A) (A) (A) (A) (A) (A) (A) (A) (A) (A)
                 (A) (A) (A) (A) (A) (A) (A) (A) (A) (A) (A) (A)
                 (A) (A) (A) (A) (A) (A) (A) (A) (A) (A) (A) (A)
                 (A) (A) (A) (A) (A) (A) (A) (A) (A) (A) (A) (A)
                 (A) (A) (A) (A) (A) (A) (A) (A) (A) (A) (A) (A)
                 (A) (A) (A) (A) (A) (A) (A) (A) (A) (A) (A) (A)
                 (A) (A) (A) (A) (A) (A) (A) (A) (A) (A) (A) (A)
                 (A) (A) (A) (A) (A) (A) (A) (A) (A) (A) (A) (A)
 Beta  Orbitals:
       Occupied  (A) (A) (A) (A) (A) (A) (A) (A) (A) (A) (A) (A)
                 (A) (A) (A) (A) (A) (A) (A) (A) (A) (A) (A) (A)
                 (A) (A) (A) (A) (A) (A) (A) (A) (A) (A) (A) (A)
                 (A) (A) (A) (A) (A) (A) (A) (A) (A) (A) (A) (A)
                 (A) (A) (A) (A) (A) (A) (A) (A) (A) (A) (A) (A)
                 (A) (A) (A) (A) (A) (A) (A) (A) (A) (A) (A) (A)
                 (A) (A)
       Virtual   (A) (A) (A) (A) (A) (A) (A) (A) (A) (A) (A) (A)
                 (A) (A) (A) (A) (A) (A) (A) (A) (A) (A) (A) (A)
                 (A) (A) (A) (A) (A) (A) (A) (A) (A) (A) (A) (A)
                 (A) (A) (A) (A) (A) (A) (A) (A) (A) (A) (A) (A)
                 (A) (A) (A) (A) (A) (A) (A) (A) (A) (A) (A) (A)
                 (A) (A) (A) (A) (A) (A) (A) (A) (A) (A) (A) (A)
                 (A) (A) (A) (A) (A) (A) (A) (A) (A) (A) (A) (A)
                 (A) (A) (A) (A) (A) (A) (A) (A) (A) (A) (A) (A)
                 (A) (A) (A) (A) (A) (A) (A) (A) (A) (A) (A) (A)
                 (A) (A) (A) (A) (A) (A) (A) (A) (A) (A) (A) (A)
                 (A) (A) (A) (A) (A) (A) (A) (A) (A) (A) (A) (A)
                 (A) (A) (A) (A) (A) (A) (A) (A) (A) (A) (A) (A)
                 (A) (A) (A) (A) (A) (A) (A) (A) (A) (A) (A) (A)
                 (A) (A) (A) (A) (A) (A) (A) (A) (A) (A) (A) (A)
                 (A) (A) (A) (A) (A) (A) (A) (A) (A) (A) (A) (A)
                 (A) (A) (A) (A) (A) (A) (A) (A) (A) (A) (A) (A)
                 (A) (A) (A) (A) (A) (A) (A) (A) (A) (A) (A) (A)
                 (A) (A) (A) (A) (A) (A) (A) (A) (A) (A) (A) (A)
                 (A) (A) (A) (A) (A) (A) (A) (A) (A) (A) (A) (A)
                 (A) (A) (A) (A) (A) (A) (A) (A) (A) (A) (A) (A)
                 (A) (A) (A) (A) (A) (A) (A) (A) (A) (A) (A) (A)
                 (A)
 The electronic state is 2-A.
 Alpha  occ. eigenvalues --  -90.10581 -19.66120 -19.66051 -14.82784 -14.74565
 Alpha  occ. eigenvalues --  -10.62370 -10.61214 -10.60642 -10.58714 -10.58203
 Alpha  occ. eigenvalues --  -10.58167 -10.56955 -10.56326 -10.56039 -10.55427
 Alpha  occ. eigenvalues --  -10.55322 -10.55020 -10.54754 -10.54416  -8.42902
 Alpha  occ. eigenvalues --   -6.35084  -6.34890  -6.34780  -1.22769  -1.14218
 Alpha  occ. eigenvalues --   -1.13280  -1.00477  -0.96271  -0.94031  -0.90566
 Alpha  occ. eigenvalues --   -0.86216  -0.85136  -0.82707  -0.81626  -0.77745
 Alpha  occ. eigenvalues --   -0.73643  -0.70243  -0.69661  -0.68306  -0.67245
 Alpha  occ. eigenvalues --   -0.65244  -0.59819  -0.59172  -0.58036  -0.57524
 Alpha  occ. eigenvalues --   -0.56771  -0.56002  -0.54885  -0.53318  -0.52759
 Alpha  occ. eigenvalues --   -0.52003  -0.50967  -0.50635  -0.50156  -0.49017
 Alpha  occ. eigenvalues --   -0.48821  -0.48192  -0.47741  -0.45097  -0.44084
 Alpha  occ. eigenvalues --   -0.42876  -0.42605  -0.42299  -0.41568  -0.41304
 Alpha  occ. eigenvalues --   -0.40634  -0.40320  -0.39949  -0.39408  -0.38239
 Alpha  occ. eigenvalues --   -0.36267  -0.34212  -0.30463  -0.27922  -0.27509
 Alpha virt. eigenvalues --    0.01347   0.05417   0.08419   0.08647   0.09911
 Alpha virt. eigenvalues --    0.11689   0.11965   0.12700   0.13259   0.13784
 Alpha virt. eigenvalues --    0.14405   0.15291   0.16764   0.17162   0.18260
 Alpha virt. eigenvalues --    0.18959   0.19342   0.19744   0.20753   0.21324
 Alpha virt. eigenvalues --    0.22082   0.22180   0.22746   0.23035   0.23668
 Alpha virt. eigenvalues --    0.24015   0.24902   0.25624   0.26329   0.27017
 Alpha virt. eigenvalues --    0.28460   0.30143   0.31348   0.31513   0.32098
 Alpha virt. eigenvalues --    0.33791   0.34366   0.37438   0.38343   0.39366
 Alpha virt. eigenvalues --    0.40852   0.42095   0.43135   0.47295   0.47925
 Alpha virt. eigenvalues --    0.50549   0.51997   0.52506   0.53149   0.55612
 Alpha virt. eigenvalues --    0.56266   0.57099   0.57738   0.58284   0.58739
 Alpha virt. eigenvalues --    0.59060   0.60184   0.61638   0.63564   0.64146
 Alpha virt. eigenvalues --    0.64303   0.65095   0.65701   0.66168   0.66532
 Alpha virt. eigenvalues --    0.67125   0.68309   0.69907   0.70910   0.71391
 Alpha virt. eigenvalues --    0.72656   0.73561   0.73896   0.75074   0.76687
 Alpha virt. eigenvalues --    0.77418   0.80361   0.82108   0.83208   0.84544
 Alpha virt. eigenvalues --    0.84984   0.85324   0.86054   0.86674   0.87720
 Alpha virt. eigenvalues --    0.88319   0.88709   0.90373   0.90992   0.91572
 Alpha virt. eigenvalues --    0.91626   0.92266   0.93338   0.93974   0.94300
 Alpha virt. eigenvalues --    0.95188   0.95480   0.95918   0.96641   0.97663
 Alpha virt. eigenvalues --    0.98471   0.98944   1.00076   1.00536   1.01426
 Alpha virt. eigenvalues --    1.01933   1.03456   1.03742   1.04437   1.04711
 Alpha virt. eigenvalues --    1.05539   1.06241   1.07379   1.08202   1.09203
 Alpha virt. eigenvalues --    1.10363   1.10918   1.12147   1.13082   1.14074
 Alpha virt. eigenvalues --    1.15376   1.18519   1.20555   1.20636   1.22391
 Alpha virt. eigenvalues --    1.23703   1.25247   1.29151   1.30105   1.33035
 Alpha virt. eigenvalues --    1.35923   1.37508   1.39284   1.40584   1.41864
 Alpha virt. eigenvalues --    1.43624   1.45105   1.45856   1.47074   1.48598
 Alpha virt. eigenvalues --    1.50820   1.52723   1.53368   1.54906   1.55307
 Alpha virt. eigenvalues --    1.56404   1.59090   1.62752   1.65278   1.67015
 Alpha virt. eigenvalues --    1.67727   1.69709   1.76458   1.80419   1.82883
 Alpha virt. eigenvalues --    1.84176   1.84721   1.85109   1.85487   1.86018
 Alpha virt. eigenvalues --    1.86612   1.87646   1.88044   1.88436   1.90124
 Alpha virt. eigenvalues --    1.93063   1.93833   1.94617   1.95279   1.96886
 Alpha virt. eigenvalues --    1.98013   1.98852   2.00171   2.01541   2.02092
 Alpha virt. eigenvalues --    2.02656   2.03506   2.04204   2.05445   2.05928
 Alpha virt. eigenvalues --    2.07331   2.08349   2.11916   2.12716   2.13840
 Alpha virt. eigenvalues --    2.14454   2.17211   2.19633   2.20386   2.21518
 Alpha virt. eigenvalues --    2.23302   2.25759   2.26825   2.27640   2.28953
 Alpha virt. eigenvalues --    2.29320   2.31171   2.31690   2.32477   2.34062
 Alpha virt. eigenvalues --    2.37307   2.38227   2.39120   2.42479   2.43158
 Alpha virt. eigenvalues --    2.45708   2.47257   2.49054   2.49548   2.55709
 Alpha virt. eigenvalues --    2.56041   2.58089   2.61520   2.64314   2.65919
 Alpha virt. eigenvalues --    2.66322   2.68274   2.70835   2.71261   2.72890
 Alpha virt. eigenvalues --    2.74362   2.76526   2.79245   2.83598   2.84708
 Alpha virt. eigenvalues --    2.85326   2.87660   2.91700   2.95426   3.09915
 Alpha virt. eigenvalues --    3.21913   3.25614   3.47651   3.72784   3.77819
 Alpha virt. eigenvalues --    3.98106   4.07735   4.11552   4.15971   4.16576
 Alpha virt. eigenvalues --    4.21069   4.22329   4.30767   4.34593   4.36184
 Alpha virt. eigenvalues --    4.38495   4.42574   4.47022   4.49578   4.56782
 Alpha virt. eigenvalues --    4.69496   4.80908
  Beta  occ. eigenvalues --  -90.10277 -19.65510 -19.65431 -14.82784 -14.74565
  Beta  occ. eigenvalues --  -10.62370 -10.61214 -10.60473 -10.58714 -10.58202
  Beta  occ. eigenvalues --  -10.58168 -10.56955 -10.56324 -10.56039 -10.55427
  Beta  occ. eigenvalues --  -10.55322 -10.55020 -10.54754 -10.54416  -8.42717
  Beta  occ. eigenvalues --   -6.34826  -6.34732  -6.34243  -1.21086  -1.14217
  Beta  occ. eigenvalues --   -1.11237  -1.00476  -0.96196  -0.93929  -0.90241
  Beta  occ. eigenvalues --   -0.85975  -0.85064  -0.82654  -0.81567  -0.77217
  Beta  occ. eigenvalues --   -0.73490  -0.69661  -0.69197  -0.67314  -0.67071
  Beta  occ. eigenvalues --   -0.65224  -0.59765  -0.58705  -0.57924  -0.57244
  Beta  occ. eigenvalues --   -0.55943  -0.55037  -0.53812  -0.52456  -0.52014
  Beta  occ. eigenvalues --   -0.51753  -0.50591  -0.50332  -0.49929  -0.48919
  Beta  occ. eigenvalues --   -0.48391  -0.47988  -0.47423  -0.44831  -0.44021
  Beta  occ. eigenvalues --   -0.42645  -0.42265  -0.41558  -0.41148  -0.40617
  Beta  occ. eigenvalues --   -0.40067  -0.39928  -0.38472  -0.37423  -0.36380
  Beta  occ. eigenvalues --   -0.36251  -0.34196  -0.27927  -0.27506
  Beta virt. eigenvalues --   -0.10317   0.01354   0.05424   0.08515   0.08663
  Beta virt. eigenvalues --    0.11163   0.11714   0.12591   0.13481   0.13814
  Beta virt. eigenvalues --    0.14054   0.14558   0.15293   0.16800   0.17187
  Beta virt. eigenvalues --    0.18287   0.19007   0.19358   0.19792   0.20785
  Beta virt. eigenvalues --    0.21436   0.22117   0.22226   0.22752   0.23088
  Beta virt. eigenvalues --    0.23681   0.24044   0.24933   0.25696   0.26394
  Beta virt. eigenvalues --    0.27068   0.28533   0.30266   0.31459   0.31589
  Beta virt. eigenvalues --    0.32267   0.33883   0.34760   0.37446   0.38417
  Beta virt. eigenvalues --    0.39380   0.40846   0.42210   0.43172   0.47305
  Beta virt. eigenvalues --    0.48174   0.50576   0.52230   0.52586   0.53358
  Beta virt. eigenvalues --    0.55803   0.56460   0.57185   0.57747   0.58521
  Beta virt. eigenvalues --    0.58765   0.59114   0.60283   0.61860   0.63963
  Beta virt. eigenvalues --    0.64207   0.64601   0.65200   0.65795   0.66207
  Beta virt. eigenvalues --    0.66611   0.67245   0.68525   0.70027   0.71090
  Beta virt. eigenvalues --    0.71471   0.72786   0.73727   0.74185   0.75121
  Beta virt. eigenvalues --    0.76715   0.77661   0.81216   0.83034   0.83327
  Beta virt. eigenvalues --    0.84598   0.85162   0.85484   0.86492   0.86968
  Beta virt. eigenvalues --    0.87886   0.88524   0.88800   0.90458   0.91083
  Beta virt. eigenvalues --    0.91584   0.91679   0.92275   0.93479   0.94050
  Beta virt. eigenvalues --    0.94356   0.95216   0.95551   0.95948   0.96721
  Beta virt. eigenvalues --    0.97683   0.98482   0.99053   1.00093   1.00780
  Beta virt. eigenvalues --    1.01638   1.01973   1.03556   1.03820   1.04859
  Beta virt. eigenvalues --    1.05108   1.05773   1.06684   1.07543   1.08930
  Beta virt. eigenvalues --    1.09830   1.10692   1.11001   1.12382   1.13600
  Beta virt. eigenvalues --    1.15385   1.15779   1.18607   1.20736   1.21103
  Beta virt. eigenvalues --    1.22444   1.23835   1.25871   1.29175   1.30116
  Beta virt. eigenvalues --    1.33076   1.35932   1.37524   1.39342   1.40759
  Beta virt. eigenvalues --    1.41950   1.43827   1.45109   1.45913   1.47087
  Beta virt. eigenvalues --    1.48619   1.50829   1.52843   1.53479   1.54909
  Beta virt. eigenvalues --    1.55383   1.56440   1.59347   1.62804   1.65512
  Beta virt. eigenvalues --    1.67108   1.67765   1.69851   1.76534   1.80602
  Beta virt. eigenvalues --    1.83229   1.84635   1.84917   1.85410   1.86075
  Beta virt. eigenvalues --    1.86157   1.87297   1.87956   1.88152   1.89158
  Beta virt. eigenvalues --    1.90224   1.93237   1.93930   1.94721   1.95880
  Beta virt. eigenvalues --    1.97051   1.98219   1.98956   2.00243   2.01641
  Beta virt. eigenvalues --    2.02121   2.02749   2.03746   2.04214   2.05939
  Beta virt. eigenvalues --    2.06029   2.07404   2.08930   2.12151   2.12745
  Beta virt. eigenvalues --    2.13866   2.15191   2.17298   2.19679   2.20858
  Beta virt. eigenvalues --    2.21535   2.23366   2.25853   2.27131   2.27692
  Beta virt. eigenvalues --    2.28970   2.29363   2.31315   2.31721   2.32487
  Beta virt. eigenvalues --    2.34130   2.37376   2.38243   2.39384   2.42499
  Beta virt. eigenvalues --    2.43274   2.45723   2.47314   2.49115   2.49568
  Beta virt. eigenvalues --    2.55728   2.56197   2.58097   2.61593   2.64393
  Beta virt. eigenvalues --    2.66081   2.66343   2.68327   2.70855   2.71301
  Beta virt. eigenvalues --    2.72902   2.74841   2.76558   2.79249   2.83796
  Beta virt. eigenvalues --    2.84876   2.85379   2.87700   2.91711   2.95428
  Beta virt. eigenvalues --    3.09923   3.21920   3.25615   3.47652   3.73334
  Beta virt. eigenvalues --    3.78350   4.00141   4.07749   4.11554   4.15975
  Beta virt. eigenvalues --    4.16816   4.21631   4.22455   4.30972   4.34693
  Beta virt. eigenvalues --    4.36230   4.38788   4.42608   4.47067   4.49590
  Beta virt. eigenvalues --    4.56813   4.69530   4.80909
          Condensed to atoms (all electrons):
               1          2          3          4          5          6
     1  C    4.969936   0.534048  -0.055447  -0.042000  -0.033079   0.541148
     2  C    0.534048   4.641333   0.510921  -0.041702  -0.039857  -0.015090
     3  C   -0.055447   0.510921   4.767893   0.489566  -0.003947  -0.042412
     4  C   -0.042000  -0.041702   0.489566   5.006422   0.542256  -0.040832
     5  C   -0.033079  -0.039857  -0.003947   0.542256   4.884099   0.533032
     6  C    0.541148  -0.015090  -0.042412  -0.040832   0.533032   4.902646
     7  H    0.356134  -0.029921   0.006172   0.000165   0.004105  -0.041959
     8  H    0.000348   0.003455  -0.034767   0.355807  -0.034704   0.003654
     9  H    0.003554   0.001011   0.002324  -0.036323   0.368184  -0.035548
    10  H   -0.034813   0.002420   0.000810   0.004130  -0.037864   0.369544
    11  N    0.010986  -0.052154   0.269394  -0.087549   0.005021   0.000056
    12  N   -0.068582   0.378953  -0.084192   0.011575  -0.000298   0.004432
    13  C    0.003234  -0.093450  -0.085807   0.005721   0.000035  -0.000020
    14  C   -0.000134   0.006995  -0.037746  -0.001467   0.000071  -0.000000
    15  H   -0.000000  -0.000117   0.000288   0.000755  -0.000002  -0.000001
    16  H   -0.000004   0.000027  -0.005397   0.003313   0.000075  -0.000004
    17  H    0.000004  -0.000135   0.002434   0.000055  -0.000001   0.000000
    18  S   -0.000000   0.000003  -0.000002   0.000000   0.000000  -0.000000
    19  O   -0.000000  -0.000000   0.000000   0.000000   0.000000   0.000000
    20  O    0.000000   0.000000   0.000000  -0.000000  -0.000000  -0.000000
    21  C   -0.000006   0.000156   0.000048   0.000001   0.000000  -0.000000
    22  C    0.000006  -0.000271   0.000136   0.000002  -0.000000   0.000000
    23  H   -0.000019   0.000319   0.000100  -0.000003   0.000000  -0.000000
    24  H   -0.000001   0.000003  -0.000001  -0.000000   0.000000  -0.000000
    25  C   -0.000315   0.006125   0.004565  -0.000176   0.000003   0.000005
    26  H   -0.000000  -0.000014  -0.000002   0.000001  -0.000000   0.000000
    27  H   -0.000000   0.000004   0.000002  -0.000000   0.000000   0.000000
    28  C    0.000005  -0.000141  -0.000248  -0.000004  -0.000000  -0.000000
    29  H   -0.000020   0.000196  -0.000034  -0.000000  -0.000000  -0.000000
    30  H   -0.000000   0.000005  -0.000053  -0.000000   0.000000  -0.000000
    31  H   -0.000000   0.000003   0.000007  -0.000000   0.000000   0.000000
    32  C   -0.000004   0.000015   0.000106   0.000005   0.000000  -0.000000
    33  C   -0.000000  -0.000001  -0.000005  -0.000000   0.000000   0.000000
    34  H    0.000003  -0.000025   0.000559  -0.000001  -0.000001   0.000000
    35  H   -0.000001  -0.000009  -0.000015  -0.000000   0.000000  -0.000000
    36  H   -0.000000  -0.000000  -0.000000   0.000000   0.000000   0.000000
    37  H   -0.000000   0.000000   0.000000  -0.000000   0.000000  -0.000000
    38  H   -0.000000   0.000000   0.000000   0.000000  -0.000000  -0.000000
               7          8          9         10         11         12
     1  C    0.356134   0.000348   0.003554  -0.034813   0.010986  -0.068582
     2  C   -0.029921   0.003455   0.001011   0.002420  -0.052154   0.378953
     3  C    0.006172  -0.034767   0.002324   0.000810   0.269394  -0.084192
     4  C    0.000165   0.355807  -0.036323   0.004130  -0.087549   0.011575
     5  C    0.004105  -0.034704   0.368184  -0.037864   0.005021  -0.000298
     6  C   -0.041959   0.003654  -0.035548   0.369544   0.000056   0.004432
     7  H    0.534094   0.000016  -0.000131  -0.004316  -0.000105  -0.001281
     8  H    0.000016   0.550628  -0.004124  -0.000146  -0.006320  -0.000142
     9  H   -0.000131  -0.004124   0.543454  -0.004419  -0.000109   0.000003
    10  H   -0.004316  -0.000146  -0.004419   0.542502   0.000004  -0.000083
    11  N   -0.000105  -0.006320  -0.000109   0.000004   7.167772  -0.112090
    12  N   -0.001281  -0.000142   0.000003  -0.000083  -0.112090   6.936158
    13  C    0.000037  -0.000215   0.000002   0.000003   0.327226   0.536272
    14  C    0.000002   0.001628   0.000000  -0.000000   0.255358   0.004779
    15  H   -0.000000  -0.000037  -0.000000   0.000000  -0.044962   0.000024
    16  H    0.000000   0.003264   0.000004  -0.000000  -0.031761  -0.000193
    17  H   -0.000000  -0.000043  -0.000000  -0.000000  -0.037861   0.000083
    18  S    0.000000   0.000000   0.000000   0.000000  -0.000020   0.000065
    19  O   -0.000000   0.000000  -0.000000   0.000000   0.000000   0.000000
    20  O   -0.000000  -0.000000   0.000000  -0.000000   0.000000  -0.000000
    21  C    0.000001   0.000000  -0.000000  -0.000000  -0.001183   0.000722
    22  C   -0.000000   0.000000   0.000000   0.000000   0.001137  -0.002064
    23  H    0.000001   0.000000   0.000000  -0.000000   0.000191   0.000794
    24  H    0.000000   0.000000   0.000000  -0.000000   0.000048   0.000437
    25  C   -0.000004   0.000001  -0.000000  -0.000000  -0.077078  -0.067481
    26  H   -0.000000  -0.000000   0.000000   0.000000   0.001803   0.000026
    27  H   -0.000000  -0.000000  -0.000000  -0.000000  -0.000038  -0.000099
    28  C    0.000000  -0.000000   0.000000   0.000000   0.000067   0.001642
    29  H    0.000003   0.000000   0.000000  -0.000000   0.005024   0.002584
    30  H   -0.000000  -0.000000   0.000000  -0.000000   0.000650  -0.000087
    31  H   -0.000000   0.000000  -0.000000  -0.000000  -0.000040  -0.000082
    32  C    0.000000   0.000000  -0.000000   0.000000  -0.004067   0.000346
    33  C    0.000000   0.000000  -0.000000   0.000000   0.000066   0.000011
    34  H    0.000000  -0.000000  -0.000000   0.000000   0.000733  -0.000717
    35  H    0.000000   0.000000   0.000000  -0.000000   0.000120   0.000105
    36  H   -0.000000  -0.000000   0.000000  -0.000000   0.000000   0.000000
    37  H   -0.000000   0.000000   0.000000  -0.000000   0.000005  -0.000000
    38  H    0.000000   0.000000  -0.000000   0.000000  -0.000002  -0.000000
              13         14         15         16         17         18
     1  C    0.003234  -0.000134  -0.000000  -0.000004   0.000004  -0.000000
     2  C   -0.093450   0.006995  -0.000117   0.000027  -0.000135   0.000003
     3  C   -0.085807  -0.037746   0.000288  -0.005397   0.002434  -0.000002
     4  C    0.005721  -0.001467   0.000755   0.003313   0.000055   0.000000
     5  C    0.000035   0.000071  -0.000002   0.000075  -0.000001   0.000000
     6  C   -0.000020  -0.000000  -0.000001  -0.000004   0.000000  -0.000000
     7  H    0.000037   0.000002  -0.000000   0.000000  -0.000000   0.000000
     8  H   -0.000215   0.001628  -0.000037   0.003264  -0.000043   0.000000
     9  H    0.000002   0.000000  -0.000000   0.000004  -0.000000   0.000000
    10  H    0.000003  -0.000000   0.000000  -0.000000  -0.000000   0.000000
    11  N    0.327226   0.255358  -0.044962  -0.031761  -0.037861  -0.000020
    12  N    0.536272   0.004779   0.000024  -0.000193   0.000083   0.000065
    13  C    4.675926  -0.035961  -0.000781   0.002223  -0.003003  -0.000087
    14  C   -0.035961   5.020428   0.385033   0.379937   0.382121  -0.000011
    15  H   -0.000781   0.385033   0.528136  -0.030310  -0.034450  -0.000000
    16  H    0.002223   0.379937  -0.030310   0.500654  -0.021848   0.000001
    17  H   -0.003003   0.382121  -0.034450  -0.021848   0.517443   0.000005
    18  S   -0.000087  -0.000011  -0.000000   0.000001   0.000005  14.429000
    19  O   -0.000000  -0.000000   0.000000  -0.000000   0.000000   0.289731
    20  O   -0.000003  -0.000000   0.000000   0.000000   0.000001   0.269727
    21  C   -0.003948   0.000195  -0.000007   0.000003  -0.000075   0.085685
    22  C   -0.051230  -0.002985   0.000174   0.000014  -0.000556  -0.026468
    23  H    0.006245  -0.000015   0.000001  -0.000002  -0.000003  -0.022183
    24  H   -0.000954  -0.000006   0.000000   0.000000   0.000000  -0.008495
    25  C    0.350658   0.002038  -0.000008  -0.000098   0.002583   0.001290
    26  H   -0.007838  -0.001668   0.000003   0.000034   0.005536   0.004118
    27  H    0.004995   0.000049   0.000005  -0.000003  -0.000045  -0.003460
    28  C   -0.043217  -0.002745  -0.002209   0.000309  -0.002439  -0.000032
    29  H   -0.044465  -0.000172   0.000009   0.000004  -0.000006   0.000088
    30  H   -0.007888   0.000665   0.000295   0.000200   0.000798  -0.000004
    31  H    0.005486   0.000033   0.000022  -0.000003   0.000108  -0.000003
    32  C   -0.000035  -0.000448   0.001727  -0.000003  -0.000071   0.000001
    33  C    0.000260  -0.000102  -0.000001  -0.000000   0.000002  -0.000000
    34  H    0.006859  -0.000753   0.000924   0.000020   0.000109   0.000000
    35  H   -0.001363   0.000003   0.000007   0.000000  -0.000005  -0.000000
    36  H    0.000007   0.000002  -0.000010   0.000000   0.000000   0.000000
    37  H   -0.000032  -0.000016   0.000316  -0.000001  -0.000012   0.000000
    38  H    0.000001   0.000001   0.000003  -0.000000   0.000000   0.000000
              19         20         21         22         23         24
     1  C   -0.000000   0.000000  -0.000006   0.000006  -0.000019  -0.000001
     2  C   -0.000000   0.000000   0.000156  -0.000271   0.000319   0.000003
     3  C    0.000000   0.000000   0.000048   0.000136   0.000100  -0.000001
     4  C    0.000000  -0.000000   0.000001   0.000002  -0.000003  -0.000000
     5  C    0.000000  -0.000000   0.000000  -0.000000   0.000000   0.000000
     6  C    0.000000  -0.000000  -0.000000   0.000000  -0.000000  -0.000000
     7  H   -0.000000  -0.000000   0.000001  -0.000000   0.000001   0.000000
     8  H    0.000000  -0.000000   0.000000   0.000000   0.000000   0.000000
     9  H   -0.000000   0.000000  -0.000000   0.000000   0.000000   0.000000
    10  H    0.000000  -0.000000  -0.000000   0.000000  -0.000000  -0.000000
    11  N    0.000000   0.000000  -0.001183   0.001137   0.000191   0.000048
    12  N    0.000000  -0.000000   0.000722  -0.002064   0.000794   0.000437
    13  C   -0.000000  -0.000003  -0.003948  -0.051230   0.006245  -0.000954
    14  C   -0.000000  -0.000000   0.000195  -0.002985  -0.000015  -0.000006
    15  H    0.000000   0.000000  -0.000007   0.000174   0.000001   0.000000
    16  H   -0.000000   0.000000   0.000003   0.000014  -0.000002   0.000000
    17  H    0.000000   0.000001  -0.000075  -0.000556  -0.000003   0.000000
    18  S    0.289731   0.269727   0.085685  -0.026468  -0.022183  -0.008495
    19  O    8.283575  -0.037696  -0.031003   0.002462   0.001330  -0.000921
    20  O   -0.037696   8.310677  -0.035819   0.000962   0.001960  -0.002379
    21  C   -0.031003  -0.035819   5.637990   0.266877   0.358787   0.353883
    22  C    0.002462   0.000962   0.266877   5.211975  -0.030143  -0.030897
    23  H    0.001330   0.001960   0.358787  -0.030143   0.465503  -0.019743
    24  H   -0.000921  -0.002379   0.353883  -0.030897  -0.019743   0.461170
    25  C   -0.000029   0.000210  -0.033227   0.316437  -0.005731  -0.003668
    26  H   -0.000055  -0.000922  -0.044517   0.378527  -0.002672   0.004134
    27  H    0.000010   0.008537  -0.037536   0.381916   0.003911  -0.002358
    28  C    0.000000  -0.000003   0.003686  -0.048499   0.000050   0.000049
    29  H   -0.000000   0.000005  -0.004116  -0.040149   0.000051   0.003578
    30  H    0.000000   0.000000   0.000090  -0.004775   0.000002   0.000003
    31  H   -0.000000  -0.000002  -0.000027  -0.003317  -0.000003  -0.000001
    32  C   -0.000000   0.000000  -0.000117   0.004297   0.000001  -0.000003
    33  C    0.000000   0.000000   0.000001  -0.000117   0.000000   0.000000
    34  H    0.000000  -0.000000   0.000002   0.000007  -0.000000   0.000000
    35  H   -0.000000  -0.000000  -0.000001   0.000109  -0.000000  -0.000001
    36  H   -0.000000  -0.000000  -0.000000   0.000001  -0.000000  -0.000000
    37  H   -0.000000   0.000000   0.000000   0.000001  -0.000000  -0.000000
    38  H    0.000000   0.000000   0.000000  -0.000003   0.000000   0.000000
              25         26         27         28         29         30
     1  C   -0.000315  -0.000000  -0.000000   0.000005  -0.000020  -0.000000
     2  C    0.006125  -0.000014   0.000004  -0.000141   0.000196   0.000005
     3  C    0.004565  -0.000002   0.000002  -0.000248  -0.000034  -0.000053
     4  C   -0.000176   0.000001  -0.000000  -0.000004  -0.000000  -0.000000
     5  C    0.000003  -0.000000   0.000000  -0.000000  -0.000000   0.000000
     6  C    0.000005   0.000000   0.000000  -0.000000  -0.000000  -0.000000
     7  H   -0.000004  -0.000000  -0.000000   0.000000   0.000003  -0.000000
     8  H    0.000001  -0.000000  -0.000000  -0.000000   0.000000  -0.000000
     9  H   -0.000000   0.000000  -0.000000   0.000000   0.000000   0.000000
    10  H   -0.000000   0.000000  -0.000000   0.000000  -0.000000  -0.000000
    11  N   -0.077078   0.001803  -0.000038   0.000067   0.005024   0.000650
    12  N   -0.067481   0.000026  -0.000099   0.001642   0.002584  -0.000087
    13  C    0.350658  -0.007838   0.004995  -0.043217  -0.044465  -0.007888
    14  C    0.002038  -0.001668   0.000049  -0.002745  -0.000172   0.000665
    15  H   -0.000008   0.000003   0.000005  -0.002209   0.000009   0.000295
    16  H   -0.000098   0.000034  -0.000003   0.000309   0.000004   0.000200
    17  H    0.002583   0.005536  -0.000045  -0.002439  -0.000006   0.000798
    18  S    0.001290   0.004118  -0.003460  -0.000032   0.000088  -0.000004
    19  O   -0.000029  -0.000055   0.000010   0.000000  -0.000000   0.000000
    20  O    0.000210  -0.000922   0.008537  -0.000003   0.000005   0.000000
    21  C   -0.033227  -0.044517  -0.037536   0.003686  -0.004116   0.000090
    22  C    0.316437   0.378527   0.381916  -0.048499  -0.040149  -0.004775
    23  H   -0.005731  -0.002672   0.003911   0.000050   0.000051   0.000002
    24  H   -0.003668   0.004134  -0.002358   0.000049   0.003578   0.000003
    25  C    5.147382  -0.035619  -0.033141   0.352978   0.385322  -0.035681
    26  H   -0.035619   0.557764  -0.027064  -0.004200   0.004738   0.003139
    27  H   -0.033141  -0.027064   0.500261  -0.003132  -0.003894  -0.000172
    28  C    0.352978  -0.004200  -0.003132   5.087337  -0.035109   0.374552
    29  H    0.385322   0.004738  -0.003894  -0.035109   0.533408   0.005042
    30  H   -0.035681   0.003139  -0.000172   0.374552   0.005042   0.597215
    31  H   -0.034011  -0.000152   0.003744   0.381585  -0.006282  -0.034013
    32  C   -0.044782   0.000001   0.000059   0.370395  -0.003076  -0.041981
    33  C    0.004302  -0.000001  -0.000005  -0.050041   0.000023  -0.002238
    34  H   -0.008773   0.000007   0.000001  -0.038845  -0.000310  -0.005487
    35  H   -0.001164   0.000002  -0.000003  -0.042463   0.003936   0.005469
    36  H   -0.000133   0.000000   0.000000   0.004354  -0.000000  -0.000053
    37  H    0.000124  -0.000001   0.000001  -0.005257   0.000004   0.004589
    38  H   -0.000038   0.000000  -0.000001  -0.004897  -0.000001  -0.000382
              31         32         33         34         35         36
     1  C   -0.000000  -0.000004  -0.000000   0.000003  -0.000001  -0.000000
     2  C    0.000003   0.000015  -0.000001  -0.000025  -0.000009  -0.000000
     3  C    0.000007   0.000106  -0.000005   0.000559  -0.000015  -0.000000
     4  C   -0.000000   0.000005  -0.000000  -0.000001  -0.000000   0.000000
     5  C    0.000000   0.000000   0.000000  -0.000001   0.000000   0.000000
     6  C    0.000000  -0.000000   0.000000   0.000000  -0.000000   0.000000
     7  H   -0.000000   0.000000   0.000000   0.000000   0.000000  -0.000000
     8  H    0.000000   0.000000   0.000000  -0.000000   0.000000  -0.000000
     9  H   -0.000000  -0.000000  -0.000000  -0.000000   0.000000   0.000000
    10  H   -0.000000   0.000000   0.000000   0.000000  -0.000000  -0.000000
    11  N   -0.000040  -0.004067   0.000066   0.000733   0.000120   0.000000
    12  N   -0.000082   0.000346   0.000011  -0.000717   0.000105   0.000000
    13  C    0.005486  -0.000035   0.000260   0.006859  -0.001363   0.000007
    14  C    0.000033  -0.000448  -0.000102  -0.000753   0.000003   0.000002
    15  H    0.000022   0.001727  -0.000001   0.000924   0.000007  -0.000010
    16  H   -0.000003  -0.000003  -0.000000   0.000020   0.000000   0.000000
    17  H    0.000108  -0.000071   0.000002   0.000109  -0.000005   0.000000
    18  S   -0.000003   0.000001  -0.000000   0.000000  -0.000000   0.000000
    19  O   -0.000000  -0.000000   0.000000   0.000000  -0.000000  -0.000000
    20  O   -0.000002   0.000000   0.000000  -0.000000  -0.000000  -0.000000
    21  C   -0.000027  -0.000117   0.000001   0.000002  -0.000001  -0.000000
    22  C   -0.003317   0.004297  -0.000117   0.000007   0.000109   0.000001
    23  H   -0.000003   0.000001   0.000000  -0.000000  -0.000000  -0.000000
    24  H   -0.000001  -0.000003   0.000000   0.000000  -0.000001  -0.000000
    25  C   -0.034011  -0.044782   0.004302  -0.008773  -0.001164  -0.000133
    26  H   -0.000152   0.000001  -0.000001   0.000007   0.000002   0.000000
    27  H    0.003744   0.000059  -0.000005   0.000001  -0.000003   0.000000
    28  C    0.381585   0.370395  -0.050041  -0.038845  -0.042463   0.004354
    29  H   -0.006282  -0.003076   0.000023  -0.000310   0.003936  -0.000000
    30  H   -0.034013  -0.041981  -0.002238  -0.005487   0.005469  -0.000053
    31  H    0.555900  -0.036482  -0.002780   0.005104  -0.004370  -0.000012
    32  C   -0.036482   5.019201   0.358802   0.385906   0.390436  -0.029711
    33  C   -0.002780   0.358802   5.095005  -0.038129  -0.035880   0.383083
    34  H    0.005104   0.385906  -0.038129   0.570336  -0.033132  -0.002712
    35  H   -0.004370   0.390436  -0.035880  -0.033132   0.551500  -0.002668
    36  H   -0.000012  -0.029711   0.383083  -0.002712  -0.002668   0.532788
    37  H   -0.000312  -0.036796   0.383290  -0.004232   0.004647  -0.027963
    38  H    0.004356  -0.035848   0.385027   0.004742  -0.003991  -0.027104
              37         38
     1  C   -0.000000  -0.000000
     2  C    0.000000   0.000000
     3  C    0.000000   0.000000
     4  C   -0.000000   0.000000
     5  C    0.000000  -0.000000
     6  C   -0.000000  -0.000000
     7  H   -0.000000   0.000000
     8  H    0.000000   0.000000
     9  H    0.000000  -0.000000
    10  H   -0.000000   0.000000
    11  N    0.000005  -0.000002
    12  N   -0.000000  -0.000000
    13  C   -0.000032   0.000001
    14  C   -0.000016   0.000001
    15  H    0.000316   0.000003
    16  H   -0.000001  -0.000000
    17  H   -0.000012   0.000000
    18  S    0.000000   0.000000
    19  O   -0.000000   0.000000
    20  O    0.000000   0.000000
    21  C    0.000000   0.000000
    22  C    0.000001  -0.000003
    23  H   -0.000000   0.000000
    24  H   -0.000000   0.000000
    25  C    0.000124  -0.000038
    26  H   -0.000001   0.000000
    27  H    0.000001  -0.000001
    28  C   -0.005257  -0.004897
    29  H    0.000004  -0.000001
    30  H    0.004589  -0.000382
    31  H   -0.000312   0.004356
    32  C   -0.036796  -0.035848
    33  C    0.383290   0.385027
    34  H   -0.004232   0.004742
    35  H    0.004647  -0.003991
    36  H   -0.027963  -0.027104
    37  H    0.559054  -0.029981
    38  H   -0.029981   0.546030
          Atomic-Atomic Spin Densities.
               1          2          3          4          5          6
     1  C    0.000025  -0.000041   0.000009  -0.000009   0.000005  -0.000007
     2  C   -0.000041   0.000249   0.000013  -0.000001  -0.000004   0.000006
     3  C    0.000009   0.000013  -0.000039  -0.000034   0.000006  -0.000002
     4  C   -0.000009  -0.000001  -0.000034   0.000058   0.000007   0.000003
     5  C    0.000005  -0.000004   0.000006   0.000007  -0.000012  -0.000016
     6  C   -0.000007   0.000006  -0.000002   0.000003  -0.000016   0.000033
     7  H    0.000003  -0.000000  -0.000000  -0.000000   0.000000  -0.000001
     8  H   -0.000000   0.000001   0.000002  -0.000002  -0.000001  -0.000000
     9  H    0.000000  -0.000000   0.000000  -0.000000   0.000000   0.000000
    10  H   -0.000000  -0.000000  -0.000000   0.000000   0.000000   0.000000
    11  N    0.000001  -0.000041   0.000062  -0.000006  -0.000000   0.000000
    12  N    0.000000  -0.000166   0.000027   0.000002  -0.000001   0.000002
    13  C    0.000005   0.000008  -0.000045   0.000005   0.000000   0.000000
    14  C    0.000000  -0.000001   0.000001  -0.000002  -0.000000  -0.000000
    15  H   -0.000000  -0.000000  -0.000001   0.000001   0.000000  -0.000000
    16  H   -0.000000   0.000000   0.000001  -0.000000  -0.000000   0.000000
    17  H   -0.000000  -0.000000   0.000000  -0.000000  -0.000000   0.000000
    18  S   -0.000000   0.000003   0.000000  -0.000000   0.000000  -0.000000
    19  O   -0.000000   0.000000  -0.000000   0.000000  -0.000000   0.000000
    20  O    0.000000  -0.000000   0.000000   0.000000  -0.000000   0.000000
    21  C   -0.000000   0.000049  -0.000003  -0.000000   0.000000  -0.000000
    22  C    0.000000   0.000001  -0.000001   0.000000  -0.000000   0.000000
    23  H    0.000000  -0.000003  -0.000004  -0.000000   0.000000  -0.000000
    24  H   -0.000000   0.000010   0.000000  -0.000000   0.000000  -0.000000
    25  C    0.000000   0.000002  -0.000004   0.000000   0.000000  -0.000000
    26  H    0.000000   0.000002  -0.000000  -0.000000   0.000000  -0.000000
    27  H   -0.000000   0.000000  -0.000000  -0.000000   0.000000  -0.000000
    28  C   -0.000000   0.000001  -0.000000  -0.000000   0.000000  -0.000000
    29  H    0.000000   0.000003  -0.000000  -0.000000   0.000000  -0.000000
    30  H    0.000000   0.000000  -0.000000  -0.000000  -0.000000   0.000000
    31  H   -0.000000   0.000000  -0.000000  -0.000000   0.000000  -0.000000
    32  C    0.000000  -0.000001   0.000001  -0.000000  -0.000000   0.000000
    33  C   -0.000000   0.000000  -0.000000   0.000000   0.000000  -0.000000
    34  H    0.000000   0.000000  -0.000000  -0.000000  -0.000000   0.000000
    35  H    0.000000  -0.000000  -0.000000  -0.000000  -0.000000   0.000000
    36  H    0.000000  -0.000000   0.000000  -0.000000  -0.000000   0.000000
    37  H   -0.000000   0.000000  -0.000000   0.000000   0.000000  -0.000000
[...]
 -0.00002850,0.00003751,-0.02409922,-0.01491662,0.01069222,-0.00000210,
 -0.00002274,-0.00010225,0.00114715,-0.00021168,-0.00008869,-0.00412568
 ,0.00282001,-0.00274546,-0.20513319,-0.10746468,0.07020757,0.00487310,
 0.00334019,-0.00230606,0.22477880,0.00000149,-0.00001247,-0.00001992,-
 0.00012031,-0.00006632,0.00008905,-0.00022526,-0.00012792,-0.00015195,
 0.00000345,0.00000502,0.00002300,0.00003137,0.00000920,-0.00001440,0.0
 0000670,0.00001066,0.00000055,-0.00000076,-0.00000035,0.00000391,0.000
 00767,0.00000838,-0.00001987,0.00000057,0.00000983,-0.00000314,0.00000
 128,0.00000636,-0.00000316,0.00033276,-0.00085766,0.00077668,0.0000985
 7,0.00018236,0.00005987,0.00082651,-0.00161591,-0.00014532,0.00024072,
 -0.00027131,0.00033155,-0.00009643,0.00029868,-0.00032536,0.00000618,-
 0.00003848,-0.00004133,0.00002892,-0.00003467,-0.00003030,-0.00001229,
 0.00002992,0.00000260,-0.00000713,0.00000423,-0.00000284,-0.00000193,-
 0.00000648,0.00000004,-0.00006063,-0.00006597,-0.00002701,0.00001355,0
 .00008556,0.00019310,0.00003096,-0.00001068,-0.00000432,0.00000352,0.0
 0000212,-0.00000230,0.00001569,0.00096969,-0.00045690,-0.00001494,-0.0
 0001858,0.00000670,-0.00009916,-0.00004035,-0.00000560,0.01026463,0.00
 684869,-0.00541446,0.00005253,-0.00002237,-0.00000733,-0.00083090,0.00
 023126,-0.00005966,0.00268874,-0.00076294,0.00092208,-0.10810389,-0.12
 109592,0.04856955,-0.02504414,-0.01896239,0.01179537,0.11552552,0.1373
 8407,-0.00010307,-0.00006813,-0.00004482,0.00004367,-0.00005612,-0.000
 09554,0.00049603,0.00021864,0.00009681,-0.00017763,-0.00008463,0.00005
 978,0.00005229,0.00009353,0.00008827,0.00003879,-0.00000998,-0.0001163
 0,0.00000305,-0.00001491,-0.00000320,0.00002036,0.00000217,-0.00002130
 ,0.00000415,-0.00000336,0.00000084,0.00000767,-0.00000183,-0.00000242,
 -0.00023734,0.00001078,-0.00055977,-0.00044618,-0.00014884,-0.00048200
 ,0.00026001,0.00045064,0.00085762,-0.00049721,0.00101512,0.00016714,0.
 00014907,-0.00020872,-0.00051311,0.00006628,-0.00015486,-0.00002616,0.
 00000621,-0.00005224,-0.00004427,0.00000460,-0.00000553,0.00000931,0.0
 0000556,-0.00001386,-0.00000549,-0.00000614,-0.00000269,-0.00000336,0.
 00007123,0.00005392,-0.00000366,-0.00004282,-0.00017613,0.00002400,-0.
 00000186,-0.00000388,0.00001809,-0.00000103,-0.00000096,-0.00000370,0.
 00078578,-0.00027568,0.00011083,0.00001064,0.00000046,-0.00002712,0.00
 003607,0.00000036,-0.00002441,-0.01109886,-0.00742238,0.00436448,-0.00
 000673,0.00010615,0.00002688,0.00053039,-0.00071208,0.00059185,-0.0028
 5695,0.00086987,-0.00010373,0.07034456,0.04807776,-0.08294457,-0.00746
 364,-0.00543167,0.00299702,-0.07558841,-0.05311615,0.08588749,-0.00000
 788,0.00000361,-0.00000481,-0.00001417,-0.00002294,0.00000420,0.000140
 20,0.00013285,0.00007479,-0.00003246,-0.00002713,-0.00000437,0.0000109
 5,0.00001664,0.00001733,-0.00000928,-0.00000662,-0.00001750,0.00000361
 ,-0.00001157,-0.00000421,0.00000234,0.00000527,-0.00000881,-0.00000075
 ,-0.00000247,-0.00000074,0.00000066,-0.00000294,-0.00000100,0.00005215
 ,-0.00032700,0.00002849,-0.00008576,0.00005814,-0.00021233,-0.00016911
 ,0.00038829,0.00049391,-0.00020733,0.00020483,-0.00007960,-0.00004842,
 -0.00002459,-0.00027054,0.00012062,-0.00003433,0.00002906,0.00012727,-
 0.00017308,0.00008841,0.00001169,-0.00002767,-0.00000845,-0.00000090,0
 .00000267,0.00000312,-0.00000208,0.00001042,0.00001236,0.00002377,0.00
 001774,0.00009868,-0.00008138,-0.00019386,0.00011401,-0.00000741,0.000
 01113,0.00000979,-0.00001607,0.00004284,0.00001059,0.00121573,-0.00102
 714,-0.00055056,0.00006571,-0.00010315,0.00017078,0.00002763,-0.000034
 11,-0.00006539,-0.00116655,-0.00142452,-0.03139007,-0.00017210,0.00042
 698,0.00059887,-0.00501463,0.00252741,-0.00240314,0.00116267,-0.000722
 32,0.00034311,-0.05020549,-0.00124154,0.00181106,-0.00042669,0.0002706
 6,0.00452797,0.00004397,0.00277212,0.02625351,0.05385569,-0.00001505,-
 0.00000663,-0.00002180,-0.00012655,-0.00009319,-0.00003133,0.00028360,
 0.00015156,-0.00001706,-0.00006243,-0.00004881,0.00001714,0.00003552,0
 .00004736,0.00002433,0.00000773,-0.00001089,-0.00004061,-0.00000495,-0
 .00001068,-0.00000286,0.00001484,0.00000275,-0.00001686,0.00000017,-0.
 00000046,-0.00000208,0.00000538,0.00000070,-0.00000196,0.00011196,-0.0
 0015898,-0.00006735,-0.00020547,0.00009258,-0.00046015,-0.00029379,0.0
 0039033,0.00074940,0.00001068,0.00009202,0.00012025,0.00005121,-0.0000
 3517,-0.00030160,0.00001959,-0.00007287,-0.00001833,-0.00001000,-0.000
 00406,-0.00006284,0.00000834,0.00002440,0.00000035,-0.00000954,0.00000
 071,0.00000049,-0.00001689,-0.00001661,0.00000017,-0.00001553,-0.00000
 975,-0.00006073,0.00003685,0.00004351,-0.00000255,0.00000667,-0.000017
 46,0.00000611,0.00001614,-0.00001743,-0.00001017,-0.00035640,0.0007413
 4,0.00110904,-0.00004362,0.00000322,-0.00011189,-0.00005637,0.00002746
 ,-0.00000314,0.00007014,-0.00001128,0.01326640,0.00033273,-0.00006862,
 -0.00032154,0.00268909,-0.00060168,0.00083378,-0.00023706,0.00021524,-
 0.00072215,-0.00117381,-0.05105787,-0.02352868,0.00057684,-0.00383249,
 -0.03434171,0.00042667,0.00137495,0.01805213,-0.00252614,0.05677315,0.
 00000533,-0.00002017,0.00001126,0.00014328,0.00009325,0.00004229,-0.00
 022830,-0.00015295,0.00002609,0.00004094,0.00004312,-0.00001460,-0.000
 01991,-0.00002747,-0.00000644,0.00001174,0.00001687,0.00001800,0.00000
 199,0.00001836,0.00000618,-0.00001692,-0.00000533,0.00001926,0.0000013
 3,0.00000054,0.00000224,-0.00000283,0.00000432,0.00000157,-0.00014676,
 0.00015296,0.00029656,0.00016605,0.00005969,0.00033493,0.00002662,0.00
 014163,-0.00084609,-0.00000202,-0.00026617,-0.00019943,-0.00011046,0.0
 0006206,0.00018645,-0.00000570,0.00008613,0.00002473,0.00005690,0.0000
 0777,0.00005463,0.00001164,-0.00001117,-0.00002050,-0.00001735,0.00002
 439,0.00001827,-0.00000168,0.00001515,0.00001803,-0.00003402,0.0000228
 6,-0.00000669,-0.00013304,0.00006080,0.00040094,-0.00000573,0.00001420
 ,-0.00000429,-0.00002357,0.00002535,0.00000218,0.00054362,-0.00058700,
 0.00033383,0.00016879,-0.00015926,0.00008779,0.00005812,-0.00002786,-0
 .00002041,-0.00063444,-0.00041176,-0.01264758,-0.00037920,0.00082966,0
 .00024886,-0.00234932,0.00066489,0.00059760,-0.00013444,-0.00016246,0.
 00056504,0.00143532,-0.02377795,-0.31171155,0.00035298,-0.00088030,-0.
 00613786,0.00032606,-0.00084248,-0.01139118,0.00079349,0.02665989,0.33
 766099,-0.00001678,-0.00003053,-0.00002214,0.00000847,-0.00000025,0.00
 004634,0.00000635,-0.00002324,-0.00005247,-0.00002143,-0.00001178,0.00
 002325,0.00002302,0.00002566,0.00002126,0.00002706,0.00000824,-0.00003
 057,-0.00000334,0.00000256,0.00000364,-0.00000329,-0.00000105,-0.00000
 371,0.00000427,0.00000513,-0.00000154,0.00000458,0.00000694,-0.0000003
 9,0.00002681,0.00004526,0.00001709,0.00007891,0.00008056,0.00001092,-0
 .00018741,-0.00001730,0.00001676,-0.00000441,0.00001056,0.00000180,-0.
 00001911,0.00000562,0.00001743,0.00000834,0.00001768,-0.00000063,0.000
 01501,-0.00001574,0.00001873,0.00007692,-0.00005598,0.00000239,-0.0000
 4544,0.00006238,0.00002339,-0.00004432,0.00001535,-0.00000065,-0.00002
 201,-0.00002082,-0.00004932,0.00003894,0.00010219,0.00007691,-0.000002
 52,0.00000680,-0.00000111,-0.00000634,0.00000105,-0.00000216,0.0000525
 5,-0.00016958,-0.00042330,-0.00000384,0.00000289,-0.00000787,0.0000233
 2,-0.00001673,-0.00000224,0.00090997,0.00087106,0.00072410,-0.00000955
 ,0.00000428,0.00001448,-0.00002420,-0.00010190,-0.00006674,0.00049408,
 -0.00010466,-0.00002409,-0.00146077,-0.00044617,-0.00009961,-0.2532809
 6,0.08435307,-0.08749589,0.00050649,0.00027724,0.00012718,-0.00004272,
 0.00020187,0.00028562,0.27111517,0.00001857,0.00004037,0.00002472,-0.0
 0000554,-0.00002148,-0.00005608,-0.00003207,-0.00000527,0.00009738,0.0
 0002481,0.00002552,-0.00003406,-0.00004393,-0.00003835,-0.00002972,-0.
 00004218,-0.00000984,0.00004167,0.00000675,-0.00000545,-0.00000326,0.0
 0000615,-0.00000513,0.00001236,-0.00000376,-0.00000864,0.00000189,-0.0
 0000403,-0.00000903,0.00000223,-0.00010354,-0.00001963,-0.00000048,-0.
 00017769,-0.00009178,-0.00003656,0.00041095,0.00033597,-0.00000816,0.0
 0003633,-0.00006891,-0.00002595,0.00003727,0.00001729,-0.00000059,-0.0
 0001890,-0.00001853,0.00000415,-0.00002607,0.00003154,-0.00004209,-0.0
 0013831,0.00000009,-0.00000512,0.00010583,-0.00011293,-0.00003856,0.00
 009288,0.00001302,-0.00000410,0.00014891,0.00002665,0.00018090,-0.0000
 2917,-0.00067848,-0.00035126,0.00000609,-0.00001208,0.00000561,0.00001
 233,-0.00000051,0.00000211,0.00184938,-0.00008614,0.00102986,-0.000002
 70,-0.00000480,0.00003052,-0.00004846,0.00002018,-0.00002133,-0.001249
 74,-0.00638384,-0.00294997,0.00001480,0.00001421,-0.00003109,-0.000324
 85,0.00006253,0.00002964,0.00007129,0.00010748,-0.00025089,0.02872106,
 -0.01050793,0.01338092,0.08367907,-0.08313661,0.03638645,-0.00044253,0
 .00101950,0.00066878,-0.00020093,0.00132772,-0.00023503,-0.09267641,0.
 09050638,-0.00000012,0.00000161,0.00000085,-0.00001948,-0.00001433,0.0
 0001564,-0.00002528,-0.00002114,-0.00000093,0.00000825,-0.00000157,0.0
 0000073,0.00000554,-0.00000097,-0.00000083,0.00000136,0.00000089,0.000
 00076,0.00000020,-0.00000178,0.00000002,-0.00000519,0.00000329,-0.0000
 0485,0.00000088,0.00000314,-0.00000121,0.00000010,0.00000092,0.0000001
 4,0.00001842,0.00001698,0.00001500,-0.00000276,0.00002797,-0.00001283,
 0.00004510,0.00001839,0.00000400,0.00001414,-0.00002241,-0.00003363,-0
 .00008457,-0.00004136,0.00000434,-0.00000520,0.00002281,0.00000257,0.0
 0002575,-0.00003234,0.00000069,-0.00000535,-0.00002897,-0.00000564,0.0
 0001102,-0.00000300,0.00000001,0.00000762,0.00001141,0.00000012,0.0000
 3862,-0.00000084,0.00003411,0.00002641,-0.00018156,-0.00008352,-0.0000
 0041,0.00000031,0.00000192,0.00000254,-0.00000074,-0.00000138,0.000281
 12,-0.00035982,0.00068301,-0.00001207,-0.00000703,0.00000386,-0.000005
 94,0.00000575,-0.00001062,0.00003451,-0.00161333,-0.00032808,-0.000008
 20,0.00012802,0.00001417,0.00024243,-0.00023007,0.00044831,-0.00031813
 ,-0.00003398,-0.00012548,0.00953923,-0.00317958,0.00293394,-0.08768904
 ,0.03674851,-0.08708366,-0.00025703,0.00054270,0.00006373,0.00031467,0
 .00052077,0.00028205,0.09574552,-0.03851693,0.08958540,0.00000778,0.00
 001097,0.00000559,-0.00001216,-0.00000648,-0.00000776,-0.00004119,-0.0
 0003141,0.00001161,0.00001263,0.00001559,-0.00001356,-0.00001565,-0.00
 001348,-0.00001200,-0.00000966,-0.00000113,0.00001619,0.00000086,0.000
 00101,0.00000057,0.00000215,-0.00000547,0.00000817,-0.00000040,-0.0000
 0277,0.00000034,-0.00000023,-0.00000098,0.00000131,-0.00004686,0.00004
 238,0.00004903,-0.00004381,-0.00002497,0.00002486,0.00014353,0.0000044
 1,-0.00008732,0.00007901,-0.00012955,-0.00002800,0.00003131,0.00002522
 ,0.00002362,-0.00002505,0.00000281,-0.00000133,-0.00004010,0.00006558,
 -0.00001683,-0.00001254,0.00002350,0.00000691,0.00001221,-0.00002261,-
 0.00000965,0.00000716,-0.00001362,-0.00000532,0.00000169,0.00000644,0.
 00000629,-0.00001434,-0.00001323,-0.00002284,0.00000411,-0.00000755,-0
 .00000143,0.00000297,-0.00000511,-0.00000023,-0.00005725,0.00005394,-0
 .00006250,0.00000223,0.00001672,-0.00000922,-0.00001836,0.00000831,0.0
 0001243,0.00030657,-0.00021535,0.00120973,-0.00002181,-0.00004350,-0.0
 0007418,0.00007914,0.00028226,-0.00026175,-0.00003238,-0.00005735,0.00
 010900,-0.00103194,0.00019054,0.00345363,-0.05031927,0.00023455,0.0047
 1416,-0.00001413,-0.00002573,-0.00057879,0.00071038,0.00079394,0.00010
 102,0.00189964,-0.00378124,-0.02940774,0.04824873,0.00001491,0.0000078
 8,0.00000895,0.00002026,0.00002079,0.00002918,-0.00014041,-0.00007452,
 0.00001734,0.00003737,0.00002679,-0.00001879,-0.00001880,-0.00002426,-
 0.00001531,-0.00000612,0.00000571,0.00002526,0.00000167,0.00000672,0.0
 0000267,-0.00001019,-0.00000454,0.00001144,0.00000068,0.00000039,0.000
 00027,-0.00000084,0.00000123,0.00000197,-0.00002632,0.00011872,0.00023
 475,0.00009860,0.00002383,0.00018374,0.00002400,0.00001215,-0.00034492
 ,0.00017451,-0.00033774,-0.00024155,-0.00017798,0.00005051,0.00005762,
 -0.00004310,0.00008411,0.00001850,0.00001229,0.00001425,0.00001248,0.0
 0000657,-0.00000518,-0.00000979,-0.00000496,0.00000718,0.00000620,-0.0
 0000223,0.00000201,0.00000370,-0.00001157,0.00000268,0.00000221,-0.000
 01593,0.00000007,0.00009145,0.00000188,-0.00000018,-0.00000396,-0.0000
 0602,0.00000424,-0.00000046,-0.00013930,-0.00002780,0.00013500,0.00004
 075,-0.00002619,0.00002964,0.00000381,-0.00000661,0.00000367,-0.001141
 86,0.00163193,-0.00123618,-0.00009627,0.00016356,0.00018108,0.00046455
 ,-0.00010373,0.00088369,0.00011162,-0.00004328,0.00014488,0.00120865,-
 0.00369628,-0.03488161,0.00019630,-0.05119878,-0.02581248,-0.00046652,
 0.00144054,0.00046686,0.00120528,-0.00662471,-0.00129111,-0.00161407,0
 .00048665,0.01200658,-0.00104942,0.05636548,0.00002546,0.00001908,0.00
 001350,-0.00000106,0.00000693,0.00000101,-0.00008774,-0.00002928,0.000
 03564,0.00003788,0.00002411,-0.00002669,-0.00002133,-0.00002941,-0.000
 02309,-0.00001600,-0.00000140,0.00003471,0.00000077,0.00000743,0.00000
 116,-0.00000493,-0.00000257,0.00001125,-0.00000315,-0.00000261,0.00000
 053,-0.00000250,0.00000008,0.00000095,0.00000675,0.00005796,0.00014735
 ,0.00004897,0.00000403,0.00012384,0.00006037,0.00003033,-0.00019763,0.
 00001553,-0.00016778,-0.00010798,-0.00004838,-0.00020838,0.00003266,-0
 .00000464,0.00001111,0.00001104,0.00001368,-0.00001007,-0.00000093,-0.
 00003904,-0.00000157,-0.00002011,0.00002207,-0.00002002,0.00000121,0.0
 0002750,0.00001000,0.00001320,0.00001732,0.00000136,0.00002838,-0.0000
 0147,-0.00010011,-0.00004009,0.00000102,-0.00000053,-0.00000123,-0.000
 00010,0.00000386,0.00000040,0.00002766,-0.00003652,0.00050120,0.000007
 66,-0.00002368,0.00002002,-0.00001137,0.00000144,-0.00001253,-0.000243
 41,0.00071741,0.00048642,-0.00010033,0.00023744,0.00002218,0.00073539,
 -0.00052010,0.00036694,-0.00002035,-0.00010455,-0.00007768,-0.00012175
 ,-0.00099290,-0.00766827,0.00477325,-0.02567680,-0.31524849,-0.0002027
 4,-0.00031028,0.00051043,-0.00013161,-0.00165706,0.00136272,0.00097783
 ,-0.00083704,-0.01094288,-0.00513502,0.03060567,0.34148153,-0.00000345
 ,-0.00000640,0.00001136,0.00003270,0.00000615,-0.00001762,0.00002940,0
 .00002702,0.00001586,-0.00000169,-0.00001440,-0.00000219,0.00000598,0.
 00000275,0.00000729,0.00000451,-0.00000163,-0.00000524,-0.00000092,0.0
 0000058,-0.00000230,-0.00000068,0.00000610,-0.00000548,-0.00000314,0.0
 0000045,0.00000032,-0.00000420,-0.00000126,-0.00000182,-0.00002489,-0.
 00000599,-0.00004853,-0.00006134,-0.00004853,-0.00003759,-0.00002885,0
 .00013742,0.00003511,-0.00001789,0.00006224,0.00004597,0.00000388,-0.0
 0002442,-0.00002352,-0.00000122,-0.00001330,-0.00000382,0.00000476,-0.
 00000878,-0.00001334,-0.00005852,0.00001429,0.00000289,0.00003372,-0.0
 0003062,-0.00001479,0.00003801,0.00000330,-0.00000319,0.00000640,0.000
 00536,0.00002999,-0.00001433,-0.00007077,-0.00002341,0.00000165,-0.000
 00233,-0.00000013,0.00000468,-0.00000354,-0.00000007,0.00019600,0.0000
 9337,0.00004372,-0.00000114,-0.00000119,0.00000159,-0.00001895,0.00000
 149,-0.00000327,0.00129902,0.00063580,-0.00033521,-0.00000890,-0.00002
 042,-0.00001362,-0.00003859,-0.00006376,-0.00006083,0.00022454,-0.0003
 3562,0.00031891,0.00332290,0.00277264,-0.00269410,-0.20362119,-0.11201
 347,0.07376334,0.00094735,0.00141281,-0.00021047,0.00013613,-0.0005463
 5,-0.00028515,-0.02012148,-0.01589041,0.01148308,0.00020501,0.00134823
 ,-0.00060216,0.21753474,0.00004368,0.00003244,0.00002035,-0.00000937,0
 .00002252,-0.00002203,0.00004833,0.00011602,0.00001370,0.00003160,0.00
 000138,-0.00002115,-0.00000995,-0.00002332,-0.00002315,-0.00002622,-0.
 00000941,0.00003211,-0.00000191,0.00000042,-0.00000420,-0.00000041,0.0
 0000569,-0.00000069,-0.00000657,-0.00000271,0.00000055,-0.00000551,-0.
 00000319,-0.00000180,0.00024114,-0.00013933,-0.00000850,0.00021396,0.0
 0003128,0.00004510,-0.00034746,0.00003246,0.00018407,-0.00009681,0.000
 03118,-0.00011288,0.00000409,-0.00001415,-0.00012867,0.00002454,-0.000
 02889,0.00001241,0.00002870,-0.00001839,0.00001404,-0.00002960,-0.0000
 2012,0.00000448,0.00001003,0.00000971,-0.00000133,0.00002340,0.0000237
 9,-0.00000521,-0.00000150,-0.00000739,-0.00000099,0.00002187,0.0000167
 2,-0.00000337,-0.00000806,0.00001762,-0.00000306,-0.00000206,-0.000006
 53,-0.00000194,0.00017812,0.00020372,-0.00030676,-0.00000815,0.0000034
 1,-0.00000853,0.00004740,-0.00002499,0.00000777,-0.00200894,0.00120452
 ,0.00026730,-0.00001681,-0.00003894,-0.00002363,0.00012383,-0.00003875
 ,-0.00000140,0.00127768,-0.00009033,0.00001597,-0.02514511,-0.01905677
 ,0.01267374,-0.11174547,-0.12990425,0.05422461,0.00166858,-0.00591026,
 -0.00212251,0.00003718,0.00139067,-0.00014543,0.00919983,0.00719025,-0
 .00576827,0.00367276,0.00169637,-0.00100557,0.12257321,0.14330757,0.00
 001835,0.00002126,0.00000975,-0.00003078,-0.00000172,0.00000133,-0.000
 06241,-0.00002178,0.00001022,0.00002859,0.00001800,-0.00001882,-0.0000
 1692,-0.00002068,-0.00001901,-0.00001536,-0.00000174,0.00002611,0.0000
 0098,-0.00000007,0.00000025,-0.00000207,-0.00000341,0.00000641,-0.0000
 0055,-0.00000140,-0.00000032,-0.00000059,-0.00000114,0.00000152,0.0000
 3254,0.00004237,0.00010653,0.00003225,0.00000556,0.00005024,0.00005476
 ,-0.00004436,-0.00008965,0.00006807,-0.00017634,-0.00008880,-0.0000426
 6,-0.00004881,-0.00000190,-0.00001354,0.00001804,0.00000539,-0.0000053
 3,0.00001773,0.00000057,0.00001038,0.00001652,0.00000394,-0.00000235,-
 0.00000652,-0.00000366,-0.00000691,-0.00001525,-0.00000298,-0.00001511
 ,-0.00000489,0.00000221,0.00002248,0.00004320,-0.00001611,0.00000276,-
 0.00000483,-0.00000326,0.00000145,-0.00000112,0.00000057,-0.00024964,0
 .00002088,-0.00000841,0.00000206,0.00000327,-0.00000011,-0.00001467,0.
 00000694,0.00001326,-0.00003293,0.00038661,-0.00011000,0.00000853,-0.0
 0002084,-0.00002657,0.00015013,0.00006533,-0.00004451,-0.00006175,0.00
 034238,0.00014559,-0.00802994,-0.00567882,0.00347957,0.07384100,0.0544
 3884,-0.08577961,0.00021509,-0.00231268,0.00054155,-0.00064512,0.00044
 419,0.00040413,-0.00987020,-0.00842090,0.00454017,0.02598101,0.0186913
 3,-0.01084068,-0.08135159,-0.05779514,0.08770510\\-0.00000902,-0.00000
 766,0.00000099,0.00001982,0.00001019,-0.00000855,-0.00001044,-0.000011
 76,-0.00000835,0.00000380,0.00000414,0.00000121,-0.00000264,-0.0000020
 2,0.00000029,0.00000374,0.00000099,-0.00000778,0.00000294,0.00000282,-
 0.00000435,0.00000036,-0.00000076,-0.00000229,-0.00000007,-0.00000183,
 -0.00000451,-0.00000004,-0.00000019,-0.00000337,-0.00000295,0.00001007
 ,0.00000160,-0.00001138,-0.00000520,-0.00000501,0.00000307,-0.00000378
 ,0.00002214,0.00000404,-0.00000931,-0.00000897,-0.00000097,0.00000034,
 0.00000258,-0.00000053,-0.00000066,0.00000145,-0.00000235,0.00000070,0
 .00000087,-0.00000205,0.00000197,-0.00001980,0.00000252,0.00001689,0.0
 0001082,-0.00000559,-0.00001450,0.00000123,0.00001323,-0.00000227,0.00
 001955,-0.00001732,0.00000417,-0.00001178,-0.00000331,0.00000038,-0.00
 000487,-0.00000003,0.00000035,-0.00000311,0.00001377,0.00000560,0.0000
 0283,0.00000238,0.00000002,0.00000309,0.00000160,0.00000081,0.00000329
 ,-0.00000045,-0.00000440,-0.00000166,-0.00000140,0.00000045,0.00000004
 ,-0.00000019,0.00000001,0.00000297,-0.00000044,0.00000100,0.00000380,0
 .00000356,0.00000767,0.00000650,-0.00000081,-0.00000568,0.00000023,-0.
 00000131,-0.00000052,0.00000096,-0.00000030,0.00000051,-0.00000046,-0.
 00000092,0.00000083,0.00000272,-0.00000032,-0.00000022,0.00000277,-0.0
 0000002,0.00000086,0.00000295\\\@
 The archive entry for this job was punched.


 Human beings, who are almost unique in having the
 ability to learn from the experience of others, are
 also remarkable for their apparent disinclination to do so.
                               -- Douglas Adams,
                                Last Chance to See
 Job cpu time:       0 days  3 hours 19 minutes 24.3 seconds.
 Elapsed time:       0 days  0 hours  2 minutes 13.3 seconds.
 File lengths (MBytes):  RWF=    908 Int=      0 D2E=      0 Chk=     14 Scr=      1
 Normal termination of Gaussian 16 at Fri Nov 21 14:10:18 2025.
