 Entering Gaussian System, Link 0=g16
 Initial command:
 /public/software/g16/l1.exe "/tmp/Gau-81945.inp" -scrdir="/tmp/"
 Entering Link 1 = /public/software/g16/l1.exe PID=     81946.
  
 Copyright (c) 1988-2021, Gaussian, Inc.  All Rights Reserved.
  
 This is part of the Gaussian(R) 16 program.  It is based on
 the Gaussian(R) 09 system (copyright 2009, Gaussian, Inc.),
 the Gaussian(R) 03 system (copyright 2003, Gaussian, Inc.),
 the Gaussian(R) 98 system (copyright 1998, Gaussian, Inc.),
 the Gaussian(R) 94 system (copyright 1995, Gaussian, Inc.),
 the Gaussian 92(TM) system (copyright 1992, Gaussian, Inc.),
 the Gaussian 90(TM) system (copyright 1990, Gaussian, Inc.),
 the Gaussian 88(TM) system (copyright 1988, Gaussian, Inc.),
 the Gaussian 86(TM) system (copyright 1986, Carnegie Mellon
 University), and the Gaussian 82(TM) system (copyright 1983,
 Carnegie Mellon University). Gaussian is a federally registered
 trademark of Gaussian, Inc.
  
 This software contains proprietary and confidential information,
 including trade secrets, belonging to Gaussian, Inc.
  
 This software is provided under written license and may be
 used, copied, transmitted, or stored only in accord with that
 written license.
  
 The following legend is applicable only to US Government
 contracts under FAR:
  
                    RESTRICTED RIGHTS LEGEND
  
 Use, reproduction and disclosure by the US Government is
 subject to restrictions as set forth in subparagraphs (a)
 and (c) of the Commercial Computer Software - Restricted
 Rights clause in FAR 52.227-19.
  
 Gaussian, Inc.
 340 Quinnipiac St., Bldg. 40, Wallingford CT 06492
  
  
 ---------------------------------------------------------------
 Warning -- This program may not be used in any manner that
 competes with the business of Gaussian, Inc. or will provide
 assistance to any competitor of Gaussian, Inc.  The licensee
 of this program is prohibited from giving any competitor of
 Gaussian, Inc. access to this program.  By using this program,
 the user acknowledges that Gaussian, Inc. is engaged in the
 business of creating and licensing software in the field of
 computational chemistry and represents and warrants to the
 licensee that it is not a competitor of Gaussian, Inc. and that
 it will not use this program in any manner prohibited above.
 ---------------------------------------------------------------
  

 Cite this work as:
 Gaussian 16, Revision C.02,
 M. J. Frisch, G. W. Trucks, H. B. Schlegel, G. E. Scuseria, 
 M. A. Robb, J. R. Cheeseman, G. Scalmani, V. Barone, 
 G. A. Petersson, H. Nakatsuji, X. Li, M. Caricato, A. V. Marenich, 
 J. Bloino, B. G. Janesko, R. Gomperts, B. Mennucci, H. P. Hratchian, 
 J. V. Ortiz, A. F. Izmaylov, J. L. Sonnenberg, D. Williams-Young, 
 F. Ding, F. Lipparini, F. Egidi, J. Goings, B. Peng, A. Petrone, 
 T. Henderson, D. Ranasinghe, V. G. Zakrzewski, J. Gao, N. Rega, 
 G. Zheng, W. Liang, M. Hada, M. Ehara, K. Toyota, R. Fukuda, 
 J. Hasegawa, M. Ishida, T. Nakajima, Y. Honda, O. Kitao, H. Nakai, 
 T. Vreven, K. Throssell, J. A. Montgomery, Jr., J. E. Peralta, 
 F. Ogliaro, M. J. Bearpark, J. J. Heyd, E. N. Brothers, K. N. Kudin, 
 V. N. Staroverov, T. A. Keith, R. Kobayashi, J. Normand, 
 K. Raghavachari, A. P. Rendell, J. C. Burant, S. S. Iyengar, 
 J. Tomasi, M. Cossi, J. M. Millam, M. Klene, C. Adamo, R. Cammi, 
 J. W. Ochterski, R. L. Martin, K. Morokuma, O. Farkas, 
 J. B. Foresman, and D. J. Fox, Gaussian, Inc., Wallingford CT, 2019.
 
 ******************************************
 Gaussian 16:  ES64L-G16RevC.02  7-Dec-2021
                21-Nov-2025 
 ******************************************
 %nprocshared=96
 Will use up to   96 processors via shared memory.
 %mem=50GB
 %chk=IM4.chk
 -------------------------
 # opt freq 6-31g(d) m062x
 -------------------------
 1/18=20,19=15,26=3,38=1/1,3;
 2/9=110,12=2,17=6,18=5,40=1/2;
 3/5=1,6=6,7=1,11=2,25=1,30=1,71=1,74=-55/1,2,3;
 4//1;
 5/5=2,38=5/2;
 6/7=2,8=2,9=2,10=2,28=1/1;
 7//1,2,3,16;
 1/18=20,19=15,26=3/3(2);
 2/9=110/2;
 99//99;
 2/9=110/2;
 3/5=1,6=6,7=1,11=2,25=1,30=1,71=1,74=-55/1,2,3;
 4/5=5,16=3,69=1/1;
 5/5=2,38=5/2;
 7//1,2,3,16;
 1/18=20,19=15,26=3/3(-5);
 2/9=110/2;
 6/7=2,8=2,9=2,10=2,19=2,28=1/1;
 99/9=1/99;
 -------------------
 Title Card Required
 -------------------
 Symbolic Z-matrix:
 Charge =  0 Multiplicity = 2
 C                     5.64083  -1.21317  -0.54047 
 C                     4.58234  -0.4345   -0.04867 
 C                     3.82703  -0.87481   1.05727 
 C                     4.09307  -2.08509   1.70934 
 C                     5.13712  -2.84027   1.2043 
 C                     5.90241  -2.41294   0.09414 
 H                     6.21916  -0.87672  -1.39448 
 H                     3.51532  -2.42248   2.56347 
 H                     5.37869  -3.78723   1.67586 
 H                     6.71065  -3.04392  -0.26038 
 N                     4.09275   0.76991  -0.50921 
 N                     2.85788   0.08524   1.25189 
 C                     1.81878   0.05988   2.2747 
 H                     2.05303   0.7586    3.07789 
 H                     0.8518    0.31819   1.83917 
 H                     1.76379  -0.95439   2.66878 
 C                     3.09193   1.02509   0.28791 
 S                     2.19475   2.56581   0.18515 
 O                     3.00136   3.47149  -0.62882 
 O                     1.85292   2.94164   1.5603 
 C                     0.67623   2.21277  -0.70033 
 C                    -0.05288   3.55203  -0.91533 
 H                     0.08478   1.53813  -0.07436 
 H                     0.95036   1.72237  -1.63886 
 C                    -1.41052   3.36168  -1.5018 
 H                    -0.13653   4.06251   0.04981 
 H                     0.56426   4.17667  -1.57328 
 C                    -2.62621   3.74797  -0.7551 
 H                    -1.51171   2.89135  -2.47339 
 H                    -3.51315   3.85682  -1.38431 
 H                    -2.49269   4.66095  -0.16219 
 S                    -3.067     2.50907   0.51015 
 C                    -3.48859   1.06569  -0.45586 
 O                    -1.8494    2.19882   1.27934 
 O                    -4.25189   2.97372   1.24266 
 C                    -3.76952  -0.14093   0.43644 
 H                    -2.62922   0.88242  -1.11031 
 H                    -4.35372   1.33079  -1.07 
 H                    -4.77342  -0.06233   0.86323 
 C                    -3.6386   -1.44276  -0.38419 
 H                    -3.05736  -0.15793   1.27024 
 C                    -2.19703  -1.64831  -0.76071 
 C                    -4.31485  -2.64085   0.3063 
 H                    -4.14613  -1.28507  -1.34403 
 N                    -1.70751  -1.26172  -1.91903 
 N                    -1.24169  -2.1723    0.07781 
 C                    -1.39866  -2.68621   1.42879 
 H                    -2.05962  -2.03938   2.0064 
 H                    -1.79668  -3.70356   1.42412 
 H                    -0.42082  -2.68797   1.91108 
 H                    -3.88064  -3.5766   -0.06854 
 H                    -4.12663  -2.61577   1.38664 
 C                    -5.82519  -2.66508   0.06687 
 C                    -0.04731  -2.13884  -0.61664 
 C                    -0.35638  -1.55236  -1.85919 
 H                    -6.26636  -1.7113    0.38211 
 H                    -6.01336  -2.75384  -1.01002 
 C                    -6.50459  -3.81293   0.80863 
 C                     1.24041  -2.57095  -0.29344 
 C                     0.65247  -1.35026  -2.80865 
 H                    -6.35602  -3.72112   1.88957 
 H                    -7.58089  -3.82887   0.61633 
 H                    -6.09123  -4.77731   0.49512 
 C                     2.22346  -2.37736  -1.25441 
 H                     1.47254  -3.04914   0.65388 
 C                     1.93783  -1.76394  -2.48964 
 H                     0.42309  -0.88823  -3.76384 
 H                     3.23745  -2.70611  -1.04469 
 H                     2.74165  -1.62194  -3.20528 
 

 GradGradGradGradGradGradGradGradGradGradGradGradGradGradGradGradGradGrad
 Berny optimization.
 Initialization pass.
                           ----------------------------
                           !    Initial Parameters    !
                           ! (Angstroms and Degrees)  !
 --------------------------                            --------------------------
 ! Name  Definition              Value          Derivative Info.                !
 --------------------------------------------------------------------------------
 ! R1    R(1,2)                  1.4031         estimate D2E/DX2                !
 ! R2    R(1,6)                  1.3822         estimate D2E/DX2                !
 ! R3    R(1,7)                  1.0849         estimate D2E/DX2                !
 ! R4    R(2,3)                  1.4098         estimate D2E/DX2                !
 ! R5    R(2,11)                 1.3793         estimate D2E/DX2                !
 ! R6    R(3,4)                  1.4003         estimate D2E/DX2                !
 ! R7    R(3,12)                 1.378          estimate D2E/DX2                !
 ! R8    R(4,5)                  1.384          estimate D2E/DX2                !
 ! R9    R(4,8)                  1.085          estimate D2E/DX2                !
 ! R10   R(5,6)                  1.4145         estimate D2E/DX2                !
 ! R11   R(5,9)                  1.0851         estimate D2E/DX2                !
 ! R12   R(6,10)                 1.0849         estimate D2E/DX2                !
 ! R13   R(11,17)                1.3047         estimate D2E/DX2                !
 ! R14   R(12,13)                1.4583         estimate D2E/DX2                !
 ! R15   R(12,17)                1.3665         estimate D2E/DX2                !
 ! R16   R(13,14)                1.09           estimate D2E/DX2                !
 ! R17   R(13,15)                1.0915         estimate D2E/DX2                !
 ! R18   R(13,16)                1.0895         estimate D2E/DX2                !
 ! R19   R(17,18)                1.7859         estimate D2E/DX2                !
 ! R20   R(18,19)                1.4606         estimate D2E/DX2                !
 ! R21   R(18,20)                1.466          estimate D2E/DX2                !
 ! R22   R(18,21)                1.7929         estimate D2E/DX2                !
 ! R23   R(21,22)                1.54           estimate D2E/DX2                !
 ! R24   R(21,23)                1.094          estimate D2E/DX2                !
 ! R25   R(21,24)                1.0938         estimate D2E/DX2                !
 ! R26   R(22,25)                1.4911         estimate D2E/DX2                !
 ! R27   R(22,26)                1.095          estimate D2E/DX2                !
 ! R28   R(22,27)                1.0972         estimate D2E/DX2                !
 ! R29   R(25,28)                1.4781         estimate D2E/DX2                !
 ! R30   R(25,29)                1.0842         estimate D2E/DX2                !
 ! R31   R(28,30)                1.0929         estimate D2E/DX2                !
 ! R32   R(28,31)                1.0968         estimate D2E/DX2                !
 ! R33   R(28,32)                1.8248         estimate D2E/DX2                !
 ! R34   R(32,33)                1.7873         estimate D2E/DX2                !
 ! R35   R(32,34)                1.4733         estimate D2E/DX2                !
 ! R36   R(32,35)                1.4685         estimate D2E/DX2                !
 ! R37   R(33,36)                1.5268         estimate D2E/DX2                !
 ! R38   R(33,37)                1.0956         estimate D2E/DX2                !
 ! R39   R(33,38)                1.0936         estimate D2E/DX2                !
 ! R40   R(36,39)                1.0937         estimate D2E/DX2                !
 ! R41   R(36,40)                1.5444         estimate D2E/DX2                !
 ! R42   R(36,41)                1.0967         estimate D2E/DX2                !
 ! R43   R(40,42)                1.504          estimate D2E/DX2                !
 ! R44   R(40,43)                1.5393         estimate D2E/DX2                !
 ! R45   R(40,44)                1.0972         estimate D2E/DX2                !
 ! R46   R(42,45)                1.3156         estimate D2E/DX2                !
 ! R47   R(42,46)                1.3749         estimate D2E/DX2                !
 ! R48   R(43,51)                1.0976         estimate D2E/DX2                !
 ! R49   R(43,52)                1.0969         estimate D2E/DX2                !
 ! R50   R(43,53)                1.5294         estimate D2E/DX2                !
 ! R51   R(45,55)                1.3833         estimate D2E/DX2                !
 ! R52   R(46,47)                1.4539         estimate D2E/DX2                !
 ! R53   R(46,54)                1.382          estimate D2E/DX2                !
 ! R54   R(47,48)                1.0904         estimate D2E/DX2                !
 ! R55   R(47,49)                1.0924         estimate D2E/DX2                !
 ! R56   R(47,50)                1.0903         estimate D2E/DX2                !
 ! R57   R(53,56)                1.0971         estimate D2E/DX2                !
 ! R58   R(53,57)                1.0968         estimate D2E/DX2                !
 ! R59   R(53,58)                1.5262         estimate D2E/DX2                !
 ! R60   R(54,55)                1.4083         estimate D2E/DX2                !
 ! R61   R(54,59)                1.3962         estimate D2E/DX2                !
 ! R62   R(55,60)                1.4            estimate D2E/DX2                !
 ! R63   R(58,61)                1.095          estimate D2E/DX2                !
 ! R64   R(58,62)                1.0935         estimate D2E/DX2                !
 ! R65   R(58,63)                1.0951         estimate D2E/DX2                !
 ! R66   R(59,64)                1.3883         estimate D2E/DX2                !
 ! R67   R(59,65)                1.0863         estimate D2E/DX2                !
 ! R68   R(60,66)                1.3875         estimate D2E/DX2                !
 ! R69   R(60,67)                1.0856         estimate D2E/DX2                !
 ! R70   R(64,66)                1.4084         estimate D2E/DX2                !
 ! R71   R(64,68)                1.0864         estimate D2E/DX2                !
 ! R72   R(66,69)                1.0856         estimate D2E/DX2                !
 ! A1    A(2,1,6)              117.6163         estimate D2E/DX2                !
 ! A2    A(2,1,7)              120.3954         estimate D2E/DX2                !
 ! A3    A(6,1,7)              121.9863         estimate D2E/DX2                !
 ! A4    A(1,2,3)              120.3866         estimate D2E/DX2                !
 ! A5    A(1,2,11)             129.4469         estimate D2E/DX2                !
 ! A6    A(3,2,11)             110.1508         estimate D2E/DX2                !
 ! A7    A(2,3,4)              122.2402         estimate D2E/DX2                !
 ! A8    A(2,3,12)             105.6647         estimate D2E/DX2                !
 ! A9    A(4,3,12)             132.0697         estimate D2E/DX2                !
 ! A10   A(3,4,5)              116.4246         estimate D2E/DX2                !
 ! A11   A(3,4,8)              122.2897         estimate D2E/DX2                !
 ! A12   A(5,4,8)              121.2854         estimate D2E/DX2                !
 ! A13   A(4,5,6)              121.9855         estimate D2E/DX2                !
 ! A14   A(4,5,9)              119.0488         estimate D2E/DX2                !
 ! A15   A(6,5,9)              118.9653         estimate D2E/DX2                !
 ! A16   A(1,6,5)              121.3447         estimate D2E/DX2                !
 ! A17   A(1,6,10)             119.7206         estimate D2E/DX2                !
 ! A18   A(5,6,10)             118.9347         estimate D2E/DX2                !
 ! A19   A(2,11,17)            103.832          estimate D2E/DX2                !
 ! A20   A(3,12,13)            126.0224         estimate D2E/DX2                !
 ! A21   A(3,12,17)            105.0158         estimate D2E/DX2                !
 ! A22   A(13,12,17)           128.9608         estimate D2E/DX2                !
 ! A23   A(12,13,14)           110.6423         estimate D2E/DX2                !
 ! A24   A(12,13,15)           110.3211         estimate D2E/DX2                !
 ! A25   A(12,13,16)           107.809          estimate D2E/DX2                !
 ! A26   A(14,13,15)           109.4322         estimate D2E/DX2                !
 ! A27   A(14,13,16)           109.9413         estimate D2E/DX2                !
 ! A28   A(15,13,16)           108.6573         estimate D2E/DX2                !
 ! A29   A(11,17,12)           115.3325         estimate D2E/DX2                !
 ! A30   A(11,17,18)           121.2627         estimate D2E/DX2                !
 ! A31   A(12,17,18)           123.2235         estimate D2E/DX2                !
 ! A32   A(17,18,19)           106.8329         estimate D2E/DX2                !
 ! A33   A(17,18,20)           106.5195         estimate D2E/DX2                !
 ! A34   A(17,18,21)           106.5009         estimate D2E/DX2                !
 ! A35   A(19,18,20)           119.5081         estimate D2E/DX2                !
 ! A36   A(19,18,21)           108.3358         estimate D2E/DX2                !
 ! A37   A(20,18,21)           108.4371         estimate D2E/DX2                !
 ! A38   A(18,21,22)           107.3798         estimate D2E/DX2                !
 ! A39   A(18,21,23)           107.2615         estimate D2E/DX2                !
 ! A40   A(18,21,24)           107.444          estimate D2E/DX2                !
 ! A41   A(22,21,23)           111.1136         estimate D2E/DX2                !
 ! A42   A(22,21,24)           112.8778         estimate D2E/DX2                !
 ! A43   A(23,21,24)           110.4859         estimate D2E/DX2                !
 ! A44   A(21,22,25)           112.0227         estimate D2E/DX2                !
 ! A45   A(21,22,26)           108.5744         estimate D2E/DX2                !
 ! A46   A(21,22,27)           108.2103         estimate D2E/DX2                !
 ! A47   A(25,22,26)           109.6716         estimate D2E/DX2                !
 ! A48   A(25,22,27)           110.4224         estimate D2E/DX2                !
 ! A49   A(26,22,27)           107.8241         estimate D2E/DX2                !
 ! A50   A(22,25,28)           121.1185         estimate D2E/DX2                !
 ! A51   A(22,25,29)           119.527          estimate D2E/DX2                !
 ! A52   A(28,25,29)           119.2969         estimate D2E/DX2                !
 ! A53   A(25,28,30)           113.7452         estimate D2E/DX2                !
 ! A54   A(25,28,31)           112.9869         estimate D2E/DX2                !
 ! A55   A(25,28,32)           111.8089         estimate D2E/DX2                !
 ! A56   A(30,28,31)           109.0948         estimate D2E/DX2                !
 ! A57   A(30,28,32)           105.7101         estimate D2E/DX2                !
 ! A58   A(31,28,32)           102.6929         estimate D2E/DX2                !
 ! A59   A(28,32,33)           103.327          estimate D2E/DX2                !
 ! A60   A(28,32,34)           107.7784         estimate D2E/DX2                !
 ! A61   A(28,32,35)           109.0229         estimate D2E/DX2                !
 ! A62   A(33,32,34)           107.8836         estimate D2E/DX2                !
 ! A63   A(33,32,35)           109.5615         estimate D2E/DX2                !
 ! A64   A(34,32,35)           118.2331         estimate D2E/DX2                !
 ! A65   A(32,33,36)           111.4546         estimate D2E/DX2                !
 ! A66   A(32,33,37)           105.838          estimate D2E/DX2                !
 ! A67   A(32,33,38)           107.1202         estimate D2E/DX2                !
 ! A68   A(36,33,37)           111.1754         estimate D2E/DX2                !
 ! A69   A(36,33,38)           111.9769         estimate D2E/DX2                !
 ! A70   A(37,33,38)           109.0029         estimate D2E/DX2                !
 ! A71   A(33,36,39)           109.8867         estimate D2E/DX2                !
 ! A72   A(33,36,40)           109.8783         estimate D2E/DX2                !
 ! A73   A(33,36,41)           109.701          estimate D2E/DX2                !
 ! A74   A(39,36,40)           110.2264         estimate D2E/DX2                !
 ! A75   A(39,36,41)           107.4871         estimate D2E/DX2                !
 ! A76   A(40,36,41)           109.6256         estimate D2E/DX2                !
 ! A77   A(36,40,42)           109.2359         estimate D2E/DX2                !
 ! A78   A(36,40,43)           112.3633         estimate D2E/DX2                !
 ! A79   A(36,40,44)           107.7267         estimate D2E/DX2                !
 ! A80   A(42,40,43)           115.2771         estimate D2E/DX2                !
 ! A81   A(42,40,44)           104.1231         estimate D2E/DX2                !
 ! A82   A(43,40,44)           107.5216         estimate D2E/DX2                !
 ! A83   A(40,42,45)           122.4726         estimate D2E/DX2                !
 ! A84   A(40,42,46)           124.4292         estimate D2E/DX2                !
 ! A85   A(45,42,46)           112.9799         estimate D2E/DX2                !
 ! A86   A(40,43,51)           109.6687         estimate D2E/DX2                !
 ! A87   A(40,43,52)           110.4022         estimate D2E/DX2                !
 ! A88   A(40,43,53)           112.0834         estimate D2E/DX2                !
 ! A89   A(51,43,52)           106.7361         estimate D2E/DX2                !
 ! A90   A(51,43,53)           108.8877         estimate D2E/DX2                !
 ! A91   A(52,43,53)           108.9053         estimate D2E/DX2                !
 ! A92   A(42,45,55)           105.2842         estimate D2E/DX2                !
 ! A93   A(42,46,47)           128.784          estimate D2E/DX2                !
 ! A94   A(42,46,54)           106.5484         estimate D2E/DX2                !
 ! A95   A(47,46,54)           124.6653         estimate D2E/DX2                !
 ! A96   A(46,47,48)           110.3648         estimate D2E/DX2                !
 ! A97   A(46,47,49)           111.3788         estimate D2E/DX2                !
 ! A98   A(46,47,50)           108.3468         estimate D2E/DX2                !
 ! A99   A(48,47,49)           109.5024         estimate D2E/DX2                !
 ! A100  A(48,47,50)           108.0763         estimate D2E/DX2                !
 ! A101  A(49,47,50)           109.0956         estimate D2E/DX2                !
 ! A102  A(43,53,56)           109.7765         estimate D2E/DX2                !
 ! A103  A(43,53,57)           108.9303         estimate D2E/DX2                !
 ! A104  A(43,53,58)           112.0516         estimate D2E/DX2                !
 ! A105  A(56,53,57)           106.4676         estimate D2E/DX2                !
 ! A106  A(56,53,58)           109.5824         estimate D2E/DX2                !
 ! A107  A(57,53,58)           109.8742         estimate D2E/DX2                !
 ! A108  A(46,54,55)           105.2934         estimate D2E/DX2                !
 ! A109  A(46,54,59)           132.3202         estimate D2E/DX2                !
 ! A110  A(55,54,59)           122.3792         estimate D2E/DX2                !
 ! A111  A(45,55,54)           109.8774         estimate D2E/DX2                !
 ! A112  A(45,55,60)           130.102          estimate D2E/DX2                !
 ! A113  A(54,55,60)           120.0205         estimate D2E/DX2                !
 ! A114  A(53,58,61)           110.8749         estimate D2E/DX2                !
 ! A115  A(53,58,62)           111.3253         estimate D2E/DX2                !
 ! A116  A(53,58,63)           110.8022         estimate D2E/DX2                !
 ! A117  A(61,58,62)           107.9631         estimate D2E/DX2                !
 ! A118  A(61,58,63)           107.773          estimate D2E/DX2                !
 ! A119  A(62,58,63)           107.9602         estimate D2E/DX2                !
 ! A120  A(54,59,64)           116.7237         estimate D2E/DX2                !
 ! A121  A(54,59,65)           122.3579         estimate D2E/DX2                !
 ! A122  A(64,59,65)           120.913          estimate D2E/DX2                !
 ! A123  A(55,60,66)           117.9434         estimate D2E/DX2                !
 ! A124  A(55,60,67)           120.3905         estimate D2E/DX2                !
 ! A125  A(66,60,67)           121.6652         estimate D2E/DX2                !
 ! A126  A(59,64,66)           121.6152         estimate D2E/DX2                !
 ! A127  A(59,64,68)           119.0184         estimate D2E/DX2                !
 ! A128  A(66,64,68)           119.3662         estimate D2E/DX2                !
 ! A129  A(60,66,64)           121.2909         estimate D2E/DX2                !
 ! A130  A(60,66,69)           119.6967         estimate D2E/DX2                !
 ! A131  A(64,66,69)           119.0105         estimate D2E/DX2                !
 ! D1    D(6,1,2,3)              0.2163         estimate D2E/DX2                !
 ! D2    D(6,1,2,11)          -178.1872         estimate D2E/DX2                !
 ! D3    D(7,1,2,3)            179.7078         estimate D2E/DX2                !
 ! D4    D(7,1,2,11)             1.3043         estimate D2E/DX2                !
 ! D5    D(2,1,6,5)             -0.3303         estimate D2E/DX2                !
 ! D6    D(2,1,6,10)           179.7623         estimate D2E/DX2                !
 ! D7    D(7,1,6,5)           -179.8132         estimate D2E/DX2                !
 ! D8    D(7,1,6,10)             0.2794         estimate D2E/DX2                !
 ! D9    D(1,2,3,4)              0.1963         estimate D2E/DX2                !
 ! D10   D(1,2,3,12)          -178.1756         estimate D2E/DX2                !
 ! D11   D(11,2,3,4)           178.8832         estimate D2E/DX2                !
 ! D12   D(11,2,3,12)            0.5113         estimate D2E/DX2                !
 ! D13   D(1,2,11,17)          178.3784         estimate D2E/DX2                !
 ! D14   D(3,2,11,17)           -0.1547         estimate D2E/DX2                !
 ! D15   D(2,3,4,5)             -0.4782         estimate D2E/DX2                !
 ! D16   D(2,3,4,8)            179.7024         estimate D2E/DX2                !
 ! D17   D(12,3,4,5)           177.4099         estimate D2E/DX2                !
 ! D18   D(12,3,4,8)            -2.4096         estimate D2E/DX2                !
 ! D19   D(2,3,12,13)          179.0224         estimate D2E/DX2                !
 ! D20   D(2,3,12,17)           -0.6356         estimate D2E/DX2                !
 ! D21   D(4,3,12,13)            0.8775         estimate D2E/DX2                !
 ! D22   D(4,3,12,17)         -178.7805         estimate D2E/DX2                !
 ! D23   D(3,4,5,6)              0.3635         estimate D2E/DX2                !
 ! D24   D(3,4,5,9)           -179.8542         estimate D2E/DX2                !
 ! D25   D(8,4,5,6)           -179.8151         estimate D2E/DX2                !
 ! D26   D(8,4,5,9)             -0.0328         estimate D2E/DX2                !
 ! D27   D(4,5,6,1)              0.0366         estimate D2E/DX2                !
 ! D28   D(4,5,6,10)           179.9447         estimate D2E/DX2                !
 ! D29   D(9,5,6,1)           -179.7458         estimate D2E/DX2                !
 ! D30   D(9,5,6,10)             0.1623         estimate D2E/DX2                !
 ! D31   D(2,11,17,12)          -0.2825         estimate D2E/DX2                !
 ! D32   D(2,11,17,18)         174.9754         estimate D2E/DX2                !
 ! D33   D(3,12,13,14)         104.71           estimate D2E/DX2                !
 ! D34   D(3,12,13,15)        -134.0503         estimate D2E/DX2                !
 ! D35   D(3,12,13,16)         -15.5428         estimate D2E/DX2                !
 ! D36   D(17,12,13,14)        -75.7149         estimate D2E/DX2                !
 ! D37   D(17,12,13,15)         45.5249         estimate D2E/DX2                !
 ! D38   D(17,12,13,16)        164.0324         estimate D2E/DX2                !
 ! D39   D(3,12,17,11)           0.6053         estimate D2E/DX2                !
 ! D40   D(3,12,17,18)        -174.5488         estimate D2E/DX2                !
 ! D41   D(13,12,17,11)       -179.0389         estimate D2E/DX2                !
 ! D42   D(13,12,17,18)          5.8069         estimate D2E/DX2                !
 ! D43   D(11,17,18,19)        -14.2174         estimate D2E/DX2                !
 ! D44   D(11,17,18,20)       -143.0082         estimate D2E/DX2                !
 ! D45   D(11,17,18,21)        101.4031         estimate D2E/DX2                !
 ! D46   D(12,17,18,19)        160.658          estimate D2E/DX2                !
 ! D47   D(12,17,18,20)         31.8672         estimate D2E/DX2                !
 ! D48   D(12,17,18,21)        -83.7215         estimate D2E/DX2                !
 ! D49   D(17,18,21,22)       -174.851          estimate D2E/DX2                !
 ! D50   D(17,18,21,23)         65.6434         estimate D2E/DX2                !
 ! D51   D(17,18,21,24)        -53.1589         estimate D2E/DX2                !
 ! D52   D(19,18,21,22)        -60.2467         estimate D2E/DX2                !
 ! D53   D(19,18,21,23)       -179.7524         estimate D2E/DX2                !
 ! D54   D(19,18,21,24)         61.4454         estimate D2E/DX2                !
 ! D55   D(20,18,21,22)         70.859          estimate D2E/DX2                !
 ! D56   D(20,18,21,23)        -48.6467         estimate D2E/DX2                !
 ! D57   D(20,18,21,24)       -167.4489         estimate D2E/DX2                !
 ! D58   D(18,21,22,25)       -173.2178         estimate D2E/DX2                !
 ! D59   D(18,21,22,26)        -51.9524         estimate D2E/DX2                !
 ! D60   D(18,21,22,27)         64.8229         estimate D2E/DX2                !
 ! D61   D(23,21,22,25)        -56.2066         estimate D2E/DX2                !
 ! D62   D(23,21,22,26)         65.0587         estimate D2E/DX2                !
 ! D63   D(23,21,22,27)       -178.166          estimate D2E/DX2                !
 ! D64   D(24,21,22,25)         68.5527         estimate D2E/DX2                !
 ! D65   D(24,21,22,26)       -170.182          estimate D2E/DX2                !
 ! D66   D(24,21,22,27)        -53.4067         estimate D2E/DX2                !
 ! D67   D(21,22,25,28)        116.3603         estimate D2E/DX2                !
 ! D68   D(21,22,25,29)        -60.8611         estimate D2E/DX2                !
 ! D69   D(26,22,25,28)         -4.2707         estimate D2E/DX2                !
 ! D70   D(26,22,25,29)        178.508          estimate D2E/DX2                !
 ! D71   D(27,22,25,28)       -122.9547         estimate D2E/DX2                !
 ! D72   D(27,22,25,29)         59.824          estimate D2E/DX2                !
 ! D73   D(22,25,28,30)        161.8272         estimate D2E/DX2                !
 ! D74   D(22,25,28,31)         36.7397         estimate D2E/DX2                !
 ! D75   D(22,25,28,32)        -78.5264         estimate D2E/DX2                !
 ! D76   D(29,25,28,30)        -20.9452         estimate D2E/DX2                !
 ! D77   D(29,25,28,31)       -146.0327         estimate D2E/DX2                !
 ! D78   D(29,25,28,32)         98.7012         estimate D2E/DX2                !
 ! D79   D(25,28,32,33)        -65.4237         estimate D2E/DX2                !
 ! D80   D(25,28,32,34)         48.6158         estimate D2E/DX2                !
 ! D81   D(25,28,32,35)        178.1124         estimate D2E/DX2                !
 ! D82   D(30,28,32,33)         58.8464         estimate D2E/DX2                !
 ! D83   D(30,28,32,34)        172.886          estimate D2E/DX2                !
 ! D84   D(30,28,32,35)        -57.6174         estimate D2E/DX2                !
 ! D85   D(31,28,32,33)        173.1576         estimate D2E/DX2                !
 ! D86   D(31,28,32,34)        -72.8029         estimate D2E/DX2                !
 ! D87   D(31,28,32,35)         56.6937         estimate D2E/DX2                !
 ! D88   D(28,32,33,36)        174.7858         estimate D2E/DX2                !
 ! D89   D(28,32,33,37)         53.7937         estimate D2E/DX2                !
 ! D90   D(28,32,33,38)        -62.4086         estimate D2E/DX2                !
 ! D91   D(34,32,33,36)         60.8223         estimate D2E/DX2                !
 ! D92   D(34,32,33,37)        -60.1699         estimate D2E/DX2                !
 ! D93   D(34,32,33,38)       -176.3722         estimate D2E/DX2                !
 ! D94   D(35,32,33,36)        -69.1322         estimate D2E/DX2                !
 ! D95   D(35,32,33,37)        169.8756         estimate D2E/DX2                !
 ! D96   D(35,32,33,38)         53.6733         estimate D2E/DX2                !
 ! D97   D(32,33,36,39)         78.3417         estimate D2E/DX2                !
 ! D98   D(32,33,36,40)       -160.2093         estimate D2E/DX2                !
 ! D99   D(32,33,36,41)        -39.6237         estimate D2E/DX2                !
 ! D100  D(37,33,36,39)       -163.8374         estimate D2E/DX2                !
 ! D101  D(37,33,36,40)        -42.3884         estimate D2E/DX2                !
 ! D102  D(37,33,36,41)         78.1971         estimate D2E/DX2                !
 ! D103  D(38,33,36,39)        -41.6367         estimate D2E/DX2                !
 ! D104  D(38,33,36,40)         79.8123         estimate D2E/DX2                !
 ! D105  D(38,33,36,41)       -159.6022         estimate D2E/DX2                !
 ! D106  D(33,36,40,42)         68.4126         estimate D2E/DX2                !
 ! D107  D(33,36,40,43)       -162.3463         estimate D2E/DX2                !
 ! D108  D(33,36,40,44)        -44.0982         estimate D2E/DX2                !
 ! D109  D(39,36,40,42)       -170.3421         estimate D2E/DX2                !
 ! D110  D(39,36,40,43)        -41.1009         estimate D2E/DX2                !
 ! D111  D(39,36,40,44)         77.1472         estimate D2E/DX2                !
 ! D112  D(41,36,40,42)        -52.2185         estimate D2E/DX2                !
 ! D113  D(41,36,40,43)         77.0227         estimate D2E/DX2                !
 ! D114  D(41,36,40,44)       -164.7293         estimate D2E/DX2                !
 ! D115  D(36,40,42,45)        -95.3871         estimate D2E/DX2                !
 ! D116  D(36,40,42,46)         80.3772         estimate D2E/DX2                !
 ! D117  D(43,40,42,45)        136.9932         estimate D2E/DX2                !
 ! D118  D(43,40,42,46)        -47.2425         estimate D2E/DX2                !
 ! D119  D(44,40,42,45)         19.4683         estimate D2E/DX2                !
 ! D120  D(44,40,42,46)       -164.7674         estimate D2E/DX2                !
 ! D121  D(36,40,43,51)       -157.6755         estimate D2E/DX2                !
 ! D122  D(36,40,43,52)        -40.3388         estimate D2E/DX2                !
 ! D123  D(36,40,43,53)         81.2597         estimate D2E/DX2                !
 ! D124  D(42,40,43,51)        -31.6425         estimate D2E/DX2                !
 ! D125  D(42,40,43,52)         85.6942         estimate D2E/DX2                !
 ! D126  D(42,40,43,53)       -152.7073         estimate D2E/DX2                !
 ! D127  D(44,40,43,51)         83.9554         estimate D2E/DX2                !
 ! D128  D(44,40,43,52)       -158.7078         estimate D2E/DX2                !
 ! D129  D(44,40,43,53)        -37.1093         estimate D2E/DX2                !
 ! D130  D(40,42,45,55)        176.7577         estimate D2E/DX2                !
 ! D131  D(46,42,45,55)          0.5519         estimate D2E/DX2                !
 ! D132  D(40,42,46,47)          3.2291         estimate D2E/DX2                !
 ! D133  D(40,42,46,54)       -177.3164         estimate D2E/DX2                !
 ! D134  D(45,42,46,47)        179.3482         estimate D2E/DX2                !
 ! D135  D(45,42,46,54)         -1.1973         estimate D2E/DX2                !
 ! D136  D(40,43,53,56)        -55.149          estimate D2E/DX2                !
 ! D137  D(40,43,53,57)         61.0686         estimate D2E/DX2                !
 ! D138  D(40,43,53,58)       -177.1496         estimate D2E/DX2                !
 ! D139  D(51,43,53,56)       -176.6633         estimate D2E/DX2                !
 ! D140  D(51,43,53,57)        -60.4457         estimate D2E/DX2                !
 ! D141  D(51,43,53,58)         61.3361         estimate D2E/DX2                !
 ! D142  D(52,43,53,56)         67.3042         estimate D2E/DX2                !
 ! D143  D(52,43,53,57)       -176.4782         estimate D2E/DX2                !
 ! D144  D(52,43,53,58)        -54.6964         estimate D2E/DX2                !
 ! D145  D(42,45,55,54)          0.3036         estimate D2E/DX2                !
 ! D146  D(42,45,55,60)       -179.7716         estimate D2E/DX2                !
 ! D147  D(42,46,47,48)        -42.1045         estimate D2E/DX2                !
 ! D148  D(42,46,47,49)         79.7477         estimate D2E/DX2                !
 ! D149  D(42,46,47,50)       -160.2553         estimate D2E/DX2                !
 ! D150  D(54,46,47,48)        138.5313         estimate D2E/DX2                !
 ! D151  D(54,46,47,49)        -99.6165         estimate D2E/DX2                !
 ! D152  D(54,46,47,50)         20.3805         estimate D2E/DX2                !
 ! D153  D(42,46,54,55)          1.2805         estimate D2E/DX2                !
 ! D154  D(42,46,54,59)       -177.7329         estimate D2E/DX2                !
 ! D155  D(47,46,54,55)       -179.2365         estimate D2E/DX2                !
 ! D156  D(47,46,54,59)          1.7501         estimate D2E/DX2                !
 ! D157  D(43,53,58,61)         60.7116         estimate D2E/DX2                !
 ! D158  D(43,53,58,62)       -179.0756         estimate D2E/DX2                !
 ! D159  D(43,53,58,63)        -58.9155         estimate D2E/DX2                !
 ! D160  D(56,53,58,61)        -61.3998         estimate D2E/DX2                !
 ! D161  D(56,53,58,62)         58.8129         estimate D2E/DX2                !
 ! D162  D(56,53,58,63)        178.9731         estimate D2E/DX2                !
 ! D163  D(57,53,58,61)       -178.0488         estimate D2E/DX2                !
 ! D164  D(57,53,58,62)        -57.8361         estimate D2E/DX2                !
 ! D165  D(57,53,58,63)         62.3241         estimate D2E/DX2                !
 ! D166  D(46,54,55,45)         -1.007          estimate D2E/DX2                !
 ! D167  D(46,54,55,60)        179.0594         estimate D2E/DX2                !
 ! D168  D(59,54,55,45)        178.1294         estimate D2E/DX2                !
 ! D169  D(59,54,55,60)         -1.8043         estimate D2E/DX2                !
 ! D170  D(46,54,59,64)        179.833          estimate D2E/DX2                !
 ! D171  D(46,54,59,65)          0.6711         estimate D2E/DX2                !
 ! D172  D(55,54,59,64)          0.9598         estimate D2E/DX2                !
 ! D173  D(55,54,59,65)       -178.2021         estimate D2E/DX2                !
 ! D174  D(45,55,60,66)       -178.8688         estimate D2E/DX2                !
 ! D175  D(45,55,60,67)          0.7914         estimate D2E/DX2                !
 ! D176  D(54,55,60,66)          1.0496         estimate D2E/DX2                !
 ! D177  D(54,55,60,67)       -179.2902         estimate D2E/DX2                !
 ! D178  D(54,59,64,66)          0.5687         estimate D2E/DX2                !
 ! D179  D(54,59,64,68)       -179.5721         estimate D2E/DX2                !
 ! D180  D(65,59,64,66)        179.7435         estimate D2E/DX2                !
 ! D181  D(65,59,64,68)         -0.3973         estimate D2E/DX2                !
 ! D182  D(55,60,66,64)          0.4404         estimate D2E/DX2                !
 ! D183  D(55,60,66,69)        179.9401         estimate D2E/DX2                !
 ! D184  D(67,60,66,64)       -179.2153         estimate D2E/DX2                !
 ! D185  D(67,60,66,69)          0.2844         estimate D2E/DX2                !
 ! D186  D(59,64,66,60)         -1.2906         estimate D2E/DX2                !
 ! D187  D(59,64,66,69)        179.2064         estimate D2E/DX2                !
 ! D188  D(68,64,66,60)        178.8508         estimate D2E/DX2                !
 ! D189  D(68,64,66,69)         -0.6523         estimate D2E/DX2                !
 --------------------------------------------------------------------------------
 Trust Radius=3.00D-01 FncErr=1.00D-07 GrdErr=1.00D-06 EigMax=2.50D+02 EigMin=1.00D-04
 Number of steps in this run=    402 maximum allowed number of steps=    414.
 GradGradGradGradGradGradGradGradGradGradGradGradGradGradGradGradGradGrad

 Stoichiometry    C26H33N4O4S2(2)
 Framework group  C1[X(C26H33N4O4S2)]
 Deg. of freedom   201
 Full point group                 C1      NOp   1
 Largest Abelian subgroup         C1      NOp   1
 Largest concise Abelian subgroup C1      NOp   1
                         Standard orientation:                         
 ---------------------------------------------------------------------
 Center     Atomic      Atomic             Coordinates (Angstroms)
 Number     Number       Type             X           Y           Z
 ---------------------------------------------------------------------
      1          6           0       -5.640832   -1.213173    0.540473
      2          6           0       -4.582344   -0.434500    0.048665
      3          6           0       -3.827033   -0.874808   -1.057273
      4          6           0       -4.093072   -2.085088   -1.709341
      5          6           0       -5.137120   -2.840273   -1.204303
      6          6           0       -5.902408   -2.412939   -0.094135
      7          1           0       -6.219157   -0.876717    1.394475
      8          1           0       -3.515317   -2.422484   -2.563465
      9          1           0       -5.378691   -3.787234   -1.675857
     10          1           0       -6.710649   -3.043922    0.260375
     11          7           0       -4.092754    0.769914    0.509210
     12          7           0       -2.857883    0.085238   -1.251889
     13          6           0       -1.818775    0.059877   -2.274698
     14          1           0       -2.053029    0.758595   -3.077887
     15          1           0       -0.851801    0.318185   -1.839173
     16          1           0       -1.763785   -0.954388   -2.668775
     17          6           0       -3.091934    1.025088   -0.287908
     18         16           0       -2.194749    2.565806   -0.185148
     19          8           0       -3.001360    3.471490    0.628824
     20          8           0       -1.852917    2.941638   -1.560304
     21          6           0       -0.676233    2.212766    0.700332
     22          6           0        0.052883    3.552034    0.915331
     23          1           0       -0.084775    1.538134    0.074357
     24          1           0       -0.950364    1.722367    1.638864
     25          6           0        1.410516    3.361677    1.501801
     26          1           0        0.136527    4.062508   -0.049808
     27          1           0       -0.564261    4.176667    1.573280
     28          6           0        2.626211    3.747966    0.755101
     29          1           0        1.511705    2.891346    2.473390
     30          1           0        3.513148    3.856816    1.384311
     31          1           0        2.492685    4.660947    0.162187
     32         16           0        3.067001    2.509069   -0.510147
     33          6           0        3.488591    1.065688    0.455864
     34          8           0        1.849397    2.198821   -1.279340
     35          8           0        4.251892    2.973719   -1.242662
     36          6           0        3.769515   -0.140934   -0.436440
     37          1           0        2.629223    0.882424    1.110305
     38          1           0        4.353724    1.330787    1.070000
     39          1           0        4.773422   -0.062333   -0.863234
     40          6           0        3.638598   -1.442760    0.384186
     41          1           0        3.057362   -0.157929   -1.270238
     42          6           0        2.197031   -1.648309    0.760714
     43          6           0        4.314851   -2.640854   -0.306295
     44          1           0        4.146133   -1.285066    1.344028
     45          7           0        1.707505   -1.261716    1.919030
     46          7           0        1.241687   -2.172302   -0.077806
     47          6           0        1.398657   -2.686212   -1.428788
     48          1           0        2.059617   -2.039381   -2.006400
     49          1           0        1.796684   -3.703555   -1.424122
     50          1           0        0.420817   -2.687974   -1.911079
     51          1           0        3.880637   -3.576603    0.068539
     52          1           0        4.126628   -2.615774   -1.386637
     53          6           0        5.825187   -2.665084   -0.066870
     54          6           0        0.047310   -2.138841    0.616640
     55          6           0        0.356379   -1.552362    1.859191
     56          1           0        6.266363   -1.711301   -0.382110
     57          1           0        6.013361   -2.753841    1.010025
     58          6           0        6.504594   -3.812926   -0.808634
     59          6           0       -1.240414   -2.570952    0.293437
     60          6           0       -0.652473   -1.350260    2.808648
     61          1           0        6.356017   -3.721120   -1.889574
     62          1           0        7.580888   -3.828874   -0.616327
     63          1           0        6.091229   -4.777307   -0.495120
     64          6           0       -2.223461   -2.377359    1.254412
     65          1           0       -1.472540   -3.049137   -0.653879
     66          6           0       -1.937829   -1.763936    2.489642
     67          1           0       -0.423088   -0.888232    3.763842
     68          1           0       -3.237450   -2.706105    1.044690
     69          1           0       -2.741650   -1.621944    3.205280
 ---------------------------------------------------------------------
 Rotational constants (GHZ):           0.1398419           0.0778761           0.0586161
 Standard basis: 6-31G(d) (6D, 7F)
 There are   614 symmetry adapted cartesian basis functions of A   symmetry.
 There are   614 symmetry adapted basis functions of A   symmetry.
   614 basis functions,  1188 primitive gaussians,   614 cartesian basis functions
   141 alpha electrons      140 beta electrons
       nuclear repulsion energy      4674.3755108537 Hartrees.
 NAtoms=   69 NActive=   69 NUniq=   69 SFac= 1.00D+00 NAtFMM=   60 NAOKFM=T Big=T
 Integral buffers will be    131072 words long.
 Raffenetti 2 integral format.
 Two-electron integral symmetry is turned on.
 One-electron integrals computed using PRISM.
 NBasis=   614 RedAO= T EigKep=  3.66D-04  NBF=   614
 NBsUse=   614 1.00D-06 EigRej= -1.00D+00 NBFU=   614
 ExpMin= 1.17D-01 ExpMax= 2.19D+04 ExpMxC= 3.30D+03 IAcc=3 IRadAn=         5 AccDes= 0.00D+00
 Harris functional with IExCor= 1009 and IRadAn=       5 diagonalized for initial guess.
 HarFok:  IExCor= 1009 AccDes= 0.00D+00 IRadAn=         5 IDoV= 1 UseB2=F ITyADJ=14
 ICtDFT=  3500011 ScaDFX=  1.000000  1.000000  1.000000  1.000000
 FoFCou: FMM=F IPFlag=           0 FMFlag=      100000 FMFlg1=        2001
         NFxFlg=           0 DoJE=T BraDBF=F KetDBF=T FulRan=T
         wScrn=  0.000000 ICntrl=       500 IOpCl=  0 I1Cent=   200000004 NGrid=           0
         NMat0=    1 NMatS0=      1 NMatT0=    0 NMatD0=    1 NMtDS0=    0 NMtDT0=    0
 Petite list used in FoFCou.
 Initial guess <Sx>= 0.0000 <Sy>= 0.0000 <Sz>= 0.5000 <S**2>= 0.7500 S= 0.5000
 Requested convergence on RMS density matrix=1.00D-08 within 128 cycles.
 Requested convergence on MAX density matrix=1.00D-06.
 Requested convergence on             energy=1.00D-06.
 No special actions if energy rises.
 Integral accuracy reduced to 1.0D-05 until final iterations.
 Initial convergence to 1.0D-05 achieved.  Increase integral accuracy.
 SCF Done:  E(UM062X) =  -2326.06318499     A.U. after   17 cycles
            NFock= 17  Conv=0.54D-08     -V/T= 2.0068
 <Sx>= 0.0000 <Sy>= 0.0000 <Sz>= 0.5000 <S**2>= 0.7557 S= 0.5028
 <L.S>=  0.00000000000    
 Annihilation of the first spin contaminant:
 S**2 before annihilation     0.7557,   after     0.7500

 **********************************************************************

            Population analysis using the SCF Density.

 **********************************************************************

 Orbital symmetries:
 Alpha Orbitals:
       Occupied  (A) (A) (A) (A) (A) (A) (A) (A) (A) (A) (A) (A)
                 (A) (A) (A) (A) (A) (A) (A) (A) (A) (A) (A) (A)
                 (A) (A) (A) (A) (A) (A) (A) (A) (A) (A) (A) (A)
                 (A) (A) (A) (A) (A) (A) (A) (A) (A) (A) (A) (A)
                 (A) (A) (A) (A) (A) (A) (A) (A) (A) (A) (A) (A)
                 (A) (A) (A) (A) (A) (A) (A) (A) (A) (A) (A) (A)
                 (A) (A) (A) (A) (A) (A) (A) (A) (A) (A) (A) (A)
                 (A) (A) (A) (A) (A) (A) (A) (A) (A) (A) (A) (A)
                 (A) (A) (A) (A) (A) (A) (A) (A) (A) (A) (A) (A)
                 (A) (A) (A) (A) (A) (A) (A) (A) (A) (A) (A) (A)
                 (A) (A) (A) (A) (A) (A) (A) (A) (A) (A) (A) (A)
                 (A) (A) (A) (A) (A) (A) (A) (A) (A)
       Virtual   (A) (A) (A) (A) (A) (A) (A) (A) (A) (A) (A) (A)
                 (A) (A) (A) (A) (A) (A) (A) (A) (A) (A) (A) (A)
                 (A) (A) (A) (A) (A) (A) (A) (A) (A) (A) (A) (A)
                 (A) (A) (A) (A) (A) (A) (A) (A) (A) (A) (A) (A)
                 (A) (A) (A) (A) (A) (A) (A) (A) (A) (A) (A) (A)
                 (A) (A) (A) (A) (A) (A) (A) (A) (A) (A) (A) (A)
                 (A) (A) (A) (A) (A) (A) (A) (A) (A) (A) (A) (A)
                 (A) (A) (A) (A) (A) (A) (A) (A) (A) (A) (A) (A)
                 (A) (A) (A) (A) (A) (A) (A) (A) (A) (A) (A) (A)
                 (A) (A) (A) (A) (A) (A) (A) (A) (A) (A) (A) (A)
                 (A) (A) (A) (A) (A) (A) (A) (A) (A) (A) (A) (A)
                 (A) (A) (A) (A) (A) (A) (A) (A) (A) (A) (A) (A)
                 (A) (A) (A) (A) (A) (A) (A) (A) (A) (A) (A) (A)
                 (A) (A) (A) (A) (A) (A) (A) (A) (A) (A) (A) (A)
                 (A) (A) (A) (A) (A) (A) (A) (A) (A) (A) (A) (A)
                 (A) (A) (A) (A) (A) (A) (A) (A) (A) (A) (A) (A)
                 (A) (A) (A) (A) (A) (A) (A) (A) (A) (A) (A) (A)
                 (A) (A) (A) (A) (A) (A) (A) (A) (A) (A) (A) (A)
                 (A) (A) (A) (A) (A) (A) (A) (A) (A) (A) (A) (A)
                 (A) (A) (A) (A) (A) (A) (A) (A) (A) (A) (A) (A)
                 (A) (A) (A) (A) (A) (A) (A) (A) (A) (A) (A) (A)
                 (A) (A) (A) (A) (A) (A) (A) (A) (A) (A) (A) (A)
                 (A) (A) (A) (A) (A) (A) (A) (A) (A) (A) (A) (A)
                 (A) (A) (A) (A) (A) (A) (A) (A) (A) (A) (A) (A)
                 (A) (A) (A) (A) (A) (A) (A) (A) (A) (A) (A) (A)
                 (A) (A) (A) (A) (A) (A) (A) (A) (A) (A) (A) (A)
                 (A) (A) (A) (A) (A) (A) (A) (A) (A) (A) (A) (A)
                 (A) (A) (A) (A) (A) (A) (A) (A) (A) (A) (A) (A)
                 (A) (A) (A) (A) (A) (A) (A) (A) (A) (A) (A) (A)
                 (A) (A) (A) (A) (A) (A) (A) (A) (A) (A) (A) (A)
                 (A) (A) (A) (A) (A) (A) (A) (A) (A) (A) (A) (A)
                 (A) (A) (A) (A) (A) (A) (A) (A) (A) (A) (A) (A)
                 (A) (A) (A) (A) (A) (A) (A) (A) (A) (A) (A) (A)
                 (A) (A) (A) (A) (A) (A) (A) (A) (A) (A) (A) (A)
                 (A) (A) (A) (A) (A) (A) (A) (A) (A) (A) (A) (A)
                 (A) (A) (A) (A) (A) (A) (A) (A) (A) (A) (A) (A)
                 (A) (A) (A) (A) (A) (A) (A) (A) (A) (A) (A) (A)
                 (A) (A) (A) (A) (A) (A) (A) (A) (A) (A) (A) (A)
                 (A) (A) (A) (A) (A) (A) (A) (A) (A) (A) (A) (A)
                 (A) (A) (A) (A) (A)
 Beta  Orbitals:
       Occupied  (A) (A) (A) (A) (A) (A) (A) (A) (A) (A) (A) (A)
                 (A) (A) (A) (A) (A) (A) (A) (A) (A) (A) (A) (A)
                 (A) (A) (A) (A) (A) (A) (A) (A) (A) (A) (A) (A)
                 (A) (A) (A) (A) (A) (A) (A) (A) (A) (A) (A) (A)
                 (A) (A) (A) (A) (A) (A) (A) (A) (A) (A) (A) (A)
                 (A) (A) (A) (A) (A) (A) (A) (A) (A) (A) (A) (A)
                 (A) (A) (A) (A) (A) (A) (A) (A) (A) (A) (A) (A)
                 (A) (A) (A) (A) (A) (A) (A) (A) (A) (A) (A) (A)
                 (A) (A) (A) (A) (A) (A) (A) (A) (A) (A) (A) (A)
                 (A) (A) (A) (A) (A) (A) (A) (A) (A) (A) (A) (A)
                 (A) (A) (A) (A) (A) (A) (A) (A) (A) (A) (A) (A)
                 (A) (A) (A) (A) (A) (A) (A) (A)
       Virtual   (A) (A) (A) (A) (A) (A) (A) (A) (A) (A) (A) (A)
                 (A) (A) (A) (A) (A) (A) (A) (A) (A) (A) (A) (A)
                 (A) (A) (A) (A) (A) (A) (A) (A) (A) (A) (A) (A)
                 (A) (A) (A) (A) (A) (A) (A) (A) (A) (A) (A) (A)
                 (A) (A) (A) (A) (A) (A) (A) (A) (A) (A) (A) (A)
                 (A) (A) (A) (A) (A) (A) (A) (A) (A) (A) (A) (A)
                 (A) (A) (A) (A) (A) (A) (A) (A) (A) (A) (A) (A)
                 (A) (A) (A) (A) (A) (A) (A) (A) (A) (A) (A) (A)
                 (A) (A) (A) (A) (A) (A) (A) (A) (A) (A) (A) (A)
                 (A) (A) (A) (A) (A) (A) (A) (A) (A) (A) (A) (A)
                 (A) (A) (A) (A) (A) (A) (A) (A) (A) (A) (A) (A)
                 (A) (A) (A) (A) (A) (A) (A) (A) (A) (A) (A) (A)
                 (A) (A) (A) (A) (A) (A) (A) (A) (A) (A) (A) (A)
                 (A) (A) (A) (A) (A) (A) (A) (A) (A) (A) (A) (A)
                 (A) (A) (A) (A) (A) (A) (A) (A) (A) (A) (A) (A)
                 (A) (A) (A) (A) (A) (A) (A) (A) (A) (A) (A) (A)
                 (A) (A) (A) (A) (A) (A) (A) (A) (A) (A) (A) (A)
                 (A) (A) (A) (A) (A) (A) (A) (A) (A) (A) (A) (A)
                 (A) (A) (A) (A) (A) (A) (A) (A) (A) (A) (A) (A)
                 (A) (A) (A) (A) (A) (A) (A) (A) (A) (A) (A) (A)
                 (A) (A) (A) (A) (A) (A) (A) (A) (A) (A) (A) (A)
                 (A) (A) (A) (A) (A) (A) (A) (A) (A) (A) (A) (A)
                 (A) (A) (A) (A) (A) (A) (A) (A) (A) (A) (A) (A)
                 (A) (A) (A) (A) (A) (A) (A) (A) (A) (A) (A) (A)
                 (A) (A) (A) (A) (A) (A) (A) (A) (A) (A) (A) (A)
                 (A) (A) (A) (A) (A) (A) (A) (A) (A) (A) (A) (A)
                 (A) (A) (A) (A) (A) (A) (A) (A) (A) (A) (A) (A)
                 (A) (A) (A) (A) (A) (A) (A) (A) (A) (A) (A) (A)
                 (A) (A) (A) (A) (A) (A) (A) (A) (A) (A) (A) (A)
                 (A) (A) (A) (A) (A) (A) (A) (A) (A) (A) (A) (A)
                 (A) (A) (A) (A) (A) (A) (A) (A) (A) (A) (A) (A)
                 (A) (A) (A) (A) (A) (A) (A) (A) (A) (A) (A) (A)
                 (A) (A) (A) (A) (A) (A) (A) (A) (A) (A) (A) (A)
                 (A) (A) (A) (A) (A) (A) (A) (A) (A) (A) (A) (A)
                 (A) (A) (A) (A) (A) (A) (A) (A) (A) (A) (A) (A)
                 (A) (A) (A) (A) (A) (A) (A) (A) (A) (A) (A) (A)
                 (A) (A) (A) (A) (A) (A) (A) (A) (A) (A) (A) (A)
                 (A) (A) (A) (A) (A) (A) (A) (A) (A) (A) (A) (A)
                 (A) (A) (A) (A) (A) (A) (A) (A) (A) (A) (A) (A)
                 (A) (A) (A) (A) (A) (A)
 The electronic state is 2-A.
 Alpha  occ. eigenvalues --  -90.13621 -90.13432 -19.63328 -19.63178 -19.62655
 Alpha  occ. eigenvalues --  -19.62470 -14.83840 -14.83091 -14.76224 -14.75049
 Alpha  occ. eigenvalues --  -10.63782 -10.62749 -10.61357 -10.60286 -10.60045
 Alpha  occ. eigenvalues --  -10.59754 -10.59330 -10.59100 -10.59056 -10.58866
 Alpha  occ. eigenvalues --  -10.58366 -10.58032 -10.57958 -10.57347 -10.57175
 Alpha  occ. eigenvalues --  -10.56945 -10.56685 -10.56448 -10.56236 -10.56004
 Alpha  occ. eigenvalues --  -10.55937 -10.55719 -10.55364 -10.55237 -10.54925
 Alpha  occ. eigenvalues --  -10.54711  -8.45049  -8.45018  -6.37191  -6.37179
 Alpha  occ. eigenvalues --   -6.37154  -6.37126  -6.37113  -6.37055  -1.22033
 Alpha  occ. eigenvalues --   -1.21951  -1.15143  -1.14560  -1.11119  -1.10820
 Alpha  occ. eigenvalues --   -1.01527  -1.00838  -0.96442  -0.95951  -0.94721
 Alpha  occ. eigenvalues --   -0.94017  -0.90933  -0.89275  -0.86625  -0.86108
 Alpha  occ. eigenvalues --   -0.85364  -0.85080  -0.82874  -0.82737  -0.81764
 Alpha  occ. eigenvalues --   -0.80689  -0.77545  -0.75232  -0.73645  -0.70405
 Alpha  occ. eigenvalues --   -0.70013  -0.69871  -0.69037  -0.68079  -0.67281
 Alpha  occ. eigenvalues --   -0.66425  -0.65703  -0.65511  -0.60944  -0.60076
 Alpha  occ. eigenvalues --   -0.59611  -0.59199  -0.58605  -0.58373  -0.57869
 Alpha  occ. eigenvalues --   -0.57829  -0.57079  -0.56737  -0.56059  -0.55503
 Alpha  occ. eigenvalues --   -0.54846  -0.54243  -0.53616  -0.52584  -0.52175
 Alpha  occ. eigenvalues --   -0.51976  -0.51647  -0.51427  -0.51132  -0.50729
 Alpha  occ. eigenvalues --   -0.50509  -0.49947  -0.49320  -0.49228  -0.48994
 Alpha  occ. eigenvalues --   -0.48796  -0.48548  -0.48391  -0.47059  -0.46857
 Alpha  occ. eigenvalues --   -0.45444  -0.44840  -0.43901  -0.43653  -0.43482
 Alpha  occ. eigenvalues --   -0.43162  -0.42819  -0.42662  -0.42181  -0.41217
 Alpha  occ. eigenvalues --   -0.41111  -0.40640  -0.40284  -0.39767  -0.39491
 Alpha  occ. eigenvalues --   -0.39062  -0.38771  -0.38481  -0.37415  -0.37030
 Alpha  occ. eigenvalues --   -0.36626  -0.36293  -0.36121  -0.35749  -0.34618
 Alpha  occ. eigenvalues --   -0.34418  -0.29331  -0.28626  -0.28146  -0.27450
 Alpha  occ. eigenvalues --   -0.26633
 Alpha virt. eigenvalues --   -0.00864   0.00912   0.04360   0.05404   0.06454
 Alpha virt. eigenvalues --    0.07697   0.08153   0.09387   0.10205   0.10884
 Alpha virt. eigenvalues --    0.11282   0.11860   0.12442   0.12729   0.12964
 Alpha virt. eigenvalues --    0.13147   0.13731   0.13852   0.14309   0.14782
 Alpha virt. eigenvalues --    0.15078   0.15202   0.15364   0.15932   0.16153
 Alpha virt. eigenvalues --    0.17171   0.17489   0.18147   0.18532   0.18591
 Alpha virt. eigenvalues --    0.18987   0.19234   0.19319   0.19596   0.20252
 Alpha virt. eigenvalues --    0.21051   0.21136   0.21261   0.21506   0.21847
 Alpha virt. eigenvalues --    0.21977   0.22043   0.22260   0.22606   0.22864
 Alpha virt. eigenvalues --    0.23022   0.23461   0.23713   0.24138   0.24908
 Alpha virt. eigenvalues --    0.26157   0.26205   0.26964   0.27727   0.28003
 Alpha virt. eigenvalues --    0.28530   0.29209   0.29839   0.30280   0.30885
 Alpha virt. eigenvalues --    0.31393   0.31575   0.31920   0.32370   0.32915
 Alpha virt. eigenvalues --    0.33914   0.34350   0.35857   0.36922   0.38201
 Alpha virt. eigenvalues --    0.38759   0.39446   0.40746   0.41912   0.42414
 Alpha virt. eigenvalues --    0.43183   0.44166   0.44818   0.45533   0.46338
 Alpha virt. eigenvalues --    0.47181   0.47578   0.48539   0.49287   0.49733
 Alpha virt. eigenvalues --    0.50605   0.51432   0.52253   0.53015   0.53355
 Alpha virt. eigenvalues --    0.54091   0.54588   0.54935   0.55352   0.56222
 Alpha virt. eigenvalues --    0.56570   0.57473   0.57939   0.58159   0.58469
 Alpha virt. eigenvalues --    0.58745   0.59076   0.59591   0.60568   0.61024
 Alpha virt. eigenvalues --    0.61251   0.62337   0.62572   0.63372   0.63844
 Alpha virt. eigenvalues --    0.64111   0.64304   0.64454   0.64892   0.65445
 Alpha virt. eigenvalues --    0.65588   0.66078   0.66852   0.67950   0.68198
 Alpha virt. eigenvalues --    0.68493   0.68810   0.69029   0.69795   0.70159
 Alpha virt. eigenvalues --    0.70454   0.70955   0.71736   0.72146   0.72593
 Alpha virt. eigenvalues --    0.72925   0.74001   0.74542   0.75063   0.75484
 Alpha virt. eigenvalues --    0.76349   0.76714   0.76748   0.77344   0.77832
 Alpha virt. eigenvalues --    0.79281   0.80657   0.81175   0.82176   0.82438
 Alpha virt. eigenvalues --    0.83004   0.83412   0.83750   0.84650   0.85402
 Alpha virt. eigenvalues --    0.85774   0.86124   0.86498   0.87054   0.87437
 Alpha virt. eigenvalues --    0.87655   0.88177   0.88397   0.88702   0.89017
 Alpha virt. eigenvalues --    0.89209   0.89860   0.90165   0.90195   0.90552
 Alpha virt. eigenvalues --    0.90758   0.91032   0.91553   0.91648   0.92116
 Alpha virt. eigenvalues --    0.92549   0.93240   0.93319   0.93570   0.94164
 Alpha virt. eigenvalues --    0.94430   0.95125   0.95520   0.95736   0.96329
 Alpha virt. eigenvalues --    0.96395   0.96896   0.97393   0.97950   0.98308
 Alpha virt. eigenvalues --    0.98749   0.98815   0.98967   0.99615   1.00010
 Alpha virt. eigenvalues --    1.00190   1.00850   1.01274   1.01351   1.01846
 Alpha virt. eigenvalues --    1.02070   1.02815   1.03164   1.03511   1.04268
 Alpha virt. eigenvalues --    1.04401   1.04971   1.05341   1.07179   1.07599
 Alpha virt. eigenvalues --    1.07852   1.08678   1.09380   1.10020   1.10543
 Alpha virt. eigenvalues --    1.10914   1.12493   1.12648   1.13728   1.14745
 Alpha virt. eigenvalues --    1.16024   1.16303   1.16475   1.17568   1.18471
 Alpha virt. eigenvalues --    1.18979   1.19232   1.20077   1.20639   1.20905
 Alpha virt. eigenvalues --    1.22269   1.22576   1.23402   1.23856   1.25175
 Alpha virt. eigenvalues --    1.25681   1.26722   1.28017   1.29393   1.29686
 Alpha virt. eigenvalues --    1.30036   1.30518   1.31246   1.31659   1.32635
 Alpha virt. eigenvalues --    1.33525   1.35203   1.35866   1.36097   1.37086
 Alpha virt. eigenvalues --    1.37957   1.38418   1.39286   1.40175   1.42256
 Alpha virt. eigenvalues --    1.42894   1.43122   1.43889   1.44861   1.45334
 Alpha virt. eigenvalues --    1.46402   1.46898   1.47233   1.48545   1.49311
 Alpha virt. eigenvalues --    1.49379   1.49968   1.51258   1.52231   1.53127
 Alpha virt. eigenvalues --    1.53479   1.54016   1.54519   1.55670   1.56432
 Alpha virt. eigenvalues --    1.57641   1.59874   1.60389   1.61460   1.63716
 Alpha virt. eigenvalues --    1.65723   1.67550   1.67831   1.69532   1.69832
 Alpha virt. eigenvalues --    1.70962   1.73008   1.73228   1.74558   1.76788
 Alpha virt. eigenvalues --    1.77571   1.78645   1.79882   1.80858   1.81782
 Alpha virt. eigenvalues --    1.82409   1.82898   1.84446   1.85081   1.85625
 Alpha virt. eigenvalues --    1.85907   1.86247   1.86802   1.86863   1.87455
 Alpha virt. eigenvalues --    1.88375   1.88519   1.89144   1.89260   1.89905
 Alpha virt. eigenvalues --    1.90824   1.91326   1.91888   1.92621   1.92944
 Alpha virt. eigenvalues --    1.93291   1.93830   1.94125   1.95203   1.95320
 Alpha virt. eigenvalues --    1.96453   1.97124   1.97350   1.98360   1.99239
 Alpha virt. eigenvalues --    2.00297   2.00897   2.00992   2.01505   2.02015
 Alpha virt. eigenvalues --    2.02194   2.02373   2.02720   2.03653   2.03786
 Alpha virt. eigenvalues --    2.03979   2.04285   2.05177   2.05443   2.07355
 Alpha virt. eigenvalues --    2.07943   2.08427   2.08643   2.09439   2.10691
 Alpha virt. eigenvalues --    2.11343   2.13063   2.14459   2.14655   2.14986
 Alpha virt. eigenvalues --    2.15412   2.15778   2.16818   2.17296   2.18049
 Alpha virt. eigenvalues --    2.18455   2.19353   2.20776   2.21656   2.22627
 Alpha virt. eigenvalues --    2.23763   2.24496   2.24830   2.25122   2.26284
 Alpha virt. eigenvalues --    2.26891   2.27899   2.28584   2.29486   2.29715
 Alpha virt. eigenvalues --    2.30175   2.30463   2.30735   2.31868   2.32713
 Alpha virt. eigenvalues --    2.33469   2.34270   2.34354   2.35883   2.36176
 Alpha virt. eigenvalues --    2.36661   2.37258   2.38148   2.38833   2.39962
 Alpha virt. eigenvalues --    2.40638   2.41538   2.42314   2.43002   2.43686
 Alpha virt. eigenvalues --    2.45154   2.47218   2.47631   2.48311   2.50131
 Alpha virt. eigenvalues --    2.51272   2.53335   2.54576   2.55017   2.56809
 Alpha virt. eigenvalues --    2.58134   2.59757   2.60635   2.61765   2.62916
 Alpha virt. eigenvalues --    2.63509   2.66513   2.66656   2.67695   2.68740
 Alpha virt. eigenvalues --    2.69274   2.69823   2.70065   2.70800   2.71156
 Alpha virt. eigenvalues --    2.72348   2.72946   2.75106   2.75225   2.76717
 Alpha virt. eigenvalues --    2.79248   2.80365   2.81233   2.82457   2.84190
 Alpha virt. eigenvalues --    2.85573   2.85687   2.86917   2.88811   2.89153
 Alpha virt. eigenvalues --    2.90869   2.92434   2.95381   2.95638   3.06505
 Alpha virt. eigenvalues --    3.09838   3.13445   3.21488   3.24586   3.25971
 Alpha virt. eigenvalues --    3.46260   3.47458   3.92615   3.95815   3.95845
 Alpha virt. eigenvalues --    3.97259   4.03845   4.05444   4.08814   4.11819
 Alpha virt. eigenvalues --    4.14711   4.16505   4.16963   4.17912   4.18187
 Alpha virt. eigenvalues --    4.18666   4.22751   4.23838   4.24571   4.28903
 Alpha virt. eigenvalues --    4.31009   4.31933   4.34533   4.35661   4.37407
 Alpha virt. eigenvalues --    4.39539   4.41241   4.44129   4.44936   4.46426
 Alpha virt. eigenvalues --    4.48772   4.50721   4.51937   4.53384   4.57042
 Alpha virt. eigenvalues --    4.69909   4.79835   4.82208
  Beta  occ. eigenvalues --  -90.13615 -90.13342 -19.63311 -19.63118 -19.62654
  Beta  occ. eigenvalues --  -19.62463 -14.83840 -14.83091 -14.76223 -14.75049
  Beta  occ. eigenvalues --  -10.63775 -10.62750 -10.61357 -10.60286 -10.60138
  Beta  occ. eigenvalues --  -10.59754 -10.59316 -10.59056 -10.58793 -10.58394
  Beta  occ. eigenvalues --  -10.58364 -10.58033 -10.57958 -10.57347 -10.57240
  Beta  occ. eigenvalues --  -10.56945 -10.56685 -10.56448 -10.56236 -10.56004
  Beta  occ. eigenvalues --  -10.55937 -10.55719 -10.55364 -10.55237 -10.54925
  Beta  occ. eigenvalues --  -10.54711  -8.45046  -8.44959  -6.37191  -6.37177
  Beta  occ. eigenvalues --   -6.37099  -6.37098  -6.37028  -6.36958  -1.21940
  Beta  occ. eigenvalues --   -1.21857  -1.15138  -1.14560  -1.10982  -1.10807
  Beta  occ. eigenvalues --   -1.01523  -1.00838  -0.96426  -0.95948  -0.94222
  Beta  occ. eigenvalues --   -0.93194  -0.90830  -0.88958  -0.86514  -0.86074
  Beta  occ. eigenvalues --   -0.85329  -0.85044  -0.82841  -0.82699  -0.81698
  Beta  occ. eigenvalues --   -0.80226  -0.77431  -0.74739  -0.73576  -0.70076
  Beta  occ. eigenvalues --   -0.69995  -0.69347  -0.68900  -0.67990  -0.67274
  Beta  occ. eigenvalues --   -0.65734  -0.65608  -0.65361  -0.60849  -0.60064
  Beta  occ. eigenvalues --   -0.59524  -0.58902  -0.58533  -0.58251  -0.57691
  Beta  occ. eigenvalues --   -0.57515  -0.56792  -0.56708  -0.55853  -0.55367
  Beta  occ. eigenvalues --   -0.54732  -0.54112  -0.53479  -0.52571  -0.52170
  Beta  occ. eigenvalues --   -0.51727  -0.51564  -0.51335  -0.51096  -0.50696
  Beta  occ. eigenvalues --   -0.50365  -0.49833  -0.49259  -0.49164  -0.48969
  Beta  occ. eigenvalues --   -0.48729  -0.48506  -0.48169  -0.47045  -0.46027
  Beta  occ. eigenvalues --   -0.44878  -0.44791  -0.43849  -0.43651  -0.43442
  Beta  occ. eigenvalues --   -0.42965  -0.42812  -0.42648  -0.42173  -0.41209
  Beta  occ. eigenvalues --   -0.41088  -0.40623  -0.40204  -0.39711  -0.39100
  Beta  occ. eigenvalues --   -0.38975  -0.38623  -0.38408  -0.37297  -0.36850
  Beta  occ. eigenvalues --   -0.36508  -0.36244  -0.35739  -0.35393  -0.34547
  Beta  occ. eigenvalues --   -0.34320  -0.29288  -0.28620  -0.28145  -0.27423
  Beta virt. eigenvalues --   -0.03658  -0.00697   0.00914   0.04370   0.05407
  Beta virt. eigenvalues --    0.06506   0.07750   0.08182   0.09568   0.10272
  Beta virt. eigenvalues --    0.11105   0.11458   0.11930   0.12628   0.12824
  Beta virt. eigenvalues --    0.13101   0.13374   0.13906   0.14062   0.14577
  Beta virt. eigenvalues --    0.14977   0.15191   0.15402   0.15910   0.15991
  Beta virt. eigenvalues --    0.16523   0.17197   0.17512   0.18322   0.18619
  Beta virt. eigenvalues --    0.18735   0.19029   0.19255   0.19441   0.19660
  Beta virt. eigenvalues --    0.20262   0.21100   0.21217   0.21279   0.21657
  Beta virt. eigenvalues --    0.21877   0.22023   0.22090   0.22282   0.22667
  Beta virt. eigenvalues --    0.22998   0.23250   0.23711   0.23989   0.24270
  Beta virt. eigenvalues --    0.25046   0.26239   0.26607   0.27142   0.27836
  Beta virt. eigenvalues --    0.28039   0.28593   0.29324   0.29960   0.30301
  Beta virt. eigenvalues --    0.30904   0.31520   0.31695   0.32391   0.32533
  Beta virt. eigenvalues --    0.33442   0.34178   0.34985   0.35874   0.36936
  Beta virt. eigenvalues --    0.38263   0.38781   0.39490   0.40861   0.42131
  Beta virt. eigenvalues --    0.42460   0.43287   0.44210   0.44937   0.45676
  Beta virt. eigenvalues --    0.46433   0.47300   0.47747   0.48848   0.49380
  Beta virt. eigenvalues --    0.50274   0.50830   0.51537   0.52309   0.53169
  Beta virt. eigenvalues --    0.53709   0.54190   0.54791   0.55185   0.55417
  Beta virt. eigenvalues --    0.56286   0.56730   0.57483   0.57962   0.58179
  Beta virt. eigenvalues --    0.58539   0.58914   0.59472   0.60092   0.60839
  Beta virt. eigenvalues --    0.61286   0.62083   0.62575   0.63037   0.63533
  Beta virt. eigenvalues --    0.64035   0.64174   0.64539   0.64595   0.65251
  Beta virt. eigenvalues --    0.65564   0.65704   0.66290   0.66925   0.68035
  Beta virt. eigenvalues --    0.68259   0.68560   0.69040   0.69521   0.69864
  Beta virt. eigenvalues --    0.70456   0.70548   0.71202   0.71820   0.72265
  Beta virt. eigenvalues --    0.72762   0.73141   0.74044   0.74880   0.75224
  Beta virt. eigenvalues --    0.75589   0.76389   0.76778   0.76954   0.77653
  Beta virt. eigenvalues --    0.78075   0.79380   0.80719   0.81335   0.82278
  Beta virt. eigenvalues --    0.82473   0.83031   0.83446   0.83909   0.84675
  Beta virt. eigenvalues --    0.85462   0.85834   0.86210   0.86637   0.87163
  Beta virt. eigenvalues --    0.87541   0.87689   0.88237   0.88572   0.88782
  Beta virt. eigenvalues --    0.89217   0.89278   0.89926   0.90226   0.90532
  Beta virt. eigenvalues --    0.90668   0.91037   0.91332   0.91722   0.91737
  Beta virt. eigenvalues --    0.92422   0.92637   0.93274   0.93516   0.93756
  Beta virt. eigenvalues --    0.94376   0.94550   0.95422   0.95678   0.95814
  Beta virt. eigenvalues --    0.96361   0.96492   0.96924   0.97506   0.98059
  Beta virt. eigenvalues --    0.98365   0.98768   0.98955   0.99030   0.99686
  Beta virt. eigenvalues --    1.00070   1.00214   1.00912   1.01288   1.01375
  Beta virt. eigenvalues --    1.01880   1.02086   1.02843   1.03212   1.03567
  Beta virt. eigenvalues --    1.04346   1.04483   1.05018   1.05374   1.07234
  Beta virt. eigenvalues --    1.07631   1.08000   1.08719   1.09496   1.10390
  Beta virt. eigenvalues --    1.10701   1.11104   1.12624   1.12921   1.13811
  Beta virt. eigenvalues --    1.14790   1.16097   1.16356   1.16547   1.17656
  Beta virt. eigenvalues --    1.18575   1.19079   1.19431   1.20156   1.20785
  Beta virt. eigenvalues --    1.21013   1.22359   1.22673   1.23520   1.23875
  Beta virt. eigenvalues --    1.25430   1.25736   1.26787   1.28299   1.29459
  Beta virt. eigenvalues --    1.29767   1.30103   1.30712   1.31349   1.31744
  Beta virt. eigenvalues --    1.32717   1.33601   1.35393   1.35942   1.36459
  Beta virt. eigenvalues --    1.37143   1.37987   1.38428   1.39328   1.40293
  Beta virt. eigenvalues --    1.42535   1.42948   1.43331   1.43977   1.44921
  Beta virt. eigenvalues --    1.46417   1.46615   1.47151   1.47277   1.48806
  Beta virt. eigenvalues --    1.49397   1.49603   1.50023   1.51585   1.52655
  Beta virt. eigenvalues --    1.53151   1.53759   1.54163   1.54803   1.55804
  Beta virt. eigenvalues --    1.56515   1.57679   1.60091   1.60501   1.61645
  Beta virt. eigenvalues --    1.63860   1.65937   1.67621   1.67897   1.69693
  Beta virt. eigenvalues --    1.70430   1.71230   1.73098   1.73654   1.74673
  Beta virt. eigenvalues --    1.76854   1.77679   1.78749   1.79953   1.81754
  Beta virt. eigenvalues --    1.82005   1.82757   1.83157   1.84482   1.85188
  Beta virt. eigenvalues --    1.85785   1.86058   1.86329   1.86819   1.86893
  Beta virt. eigenvalues --    1.87625   1.88420   1.88685   1.89195   1.89345
  Beta virt. eigenvalues --    1.90251   1.90926   1.91371   1.91991   1.92817
  Beta virt. eigenvalues --    1.93198   1.93743   1.94152   1.94583   1.95388
  Beta virt. eigenvalues --    1.96104   1.96591   1.97279   1.97835   1.98438
  Beta virt. eigenvalues --    1.99469   2.00553   2.01076   2.01159   2.01598
  Beta virt. eigenvalues --    2.02292   2.02449   2.02594   2.03172   2.03690
  Beta virt. eigenvalues --    2.03855   2.04002   2.05134   2.05392   2.06108
  Beta virt. eigenvalues --    2.07437   2.07961   2.08672   2.09153   2.09881
  Beta virt. eigenvalues --    2.10855   2.11466   2.13137   2.14528   2.14743
  Beta virt. eigenvalues --    2.15157   2.15604   2.15954   2.16888   2.17400
  Beta virt. eigenvalues --    2.18128   2.18640   2.20104   2.20833   2.21837
  Beta virt. eigenvalues --    2.22715   2.23801   2.24613   2.24984   2.25661
  Beta virt. eigenvalues --    2.26642   2.27789   2.27939   2.28678   2.29553
  Beta virt. eigenvalues --    2.29738   2.30190   2.30503   2.30780   2.31893
  Beta virt. eigenvalues --    2.32740   2.33498   2.34483   2.34664   2.35898
  Beta virt. eigenvalues --    2.36326   2.36837   2.37363   2.38351   2.38947
  Beta virt. eigenvalues --    2.40040   2.40694   2.41578   2.42376   2.43043
  Beta virt. eigenvalues --    2.44839   2.45323   2.47254   2.47646   2.48314
  Beta virt. eigenvalues --    2.50638   2.53361   2.54085   2.54611   2.55264
  Beta virt. eigenvalues --    2.56814   2.58175   2.59779   2.60642   2.62624
  Beta virt. eigenvalues --    2.62922   2.63521   2.66583   2.66745   2.67744
  Beta virt. eigenvalues --    2.68812   2.69522   2.70070   2.70870   2.71134
  Beta virt. eigenvalues --    2.72260   2.72859   2.74204   2.75202   2.76723
  Beta virt. eigenvalues --    2.78569   2.79327   2.80491   2.81515   2.82608
  Beta virt. eigenvalues --    2.84216   2.85594   2.85707   2.86936   2.88842
  Beta virt. eigenvalues --    2.89298   2.90886   2.92436   2.95389   2.95642
  Beta virt. eigenvalues --    3.06512   3.09839   3.13457   3.21490   3.24589
  Beta virt. eigenvalues --    3.25971   3.46262   3.47458   3.92823   3.95899
  Beta virt. eigenvalues --    3.96158   3.97656   4.04025   4.05505   4.08831
  Beta virt. eigenvalues --    4.11839   4.14771   4.16571   4.16994   4.17917
  Beta virt. eigenvalues --    4.18670   4.19431   4.22847   4.23904   4.24642
  Beta virt. eigenvalues --    4.29060   4.31116   4.31975   4.34549   4.35690
  Beta virt. eigenvalues --    4.37613   4.39749   4.41749   4.44226   4.45813
  Beta virt. eigenvalues --    4.46739   4.48849   4.50970   4.51972   4.53812
  Beta virt. eigenvalues --    4.57190   4.69917   4.79837   4.82209
          Condensed to atoms (all electrons):
          Atomic-Atomic Spin Densities.
 Mulliken charges and spin densities:
               1          2
     1  C   -0.172950   0.000247
     2  C    0.179750   0.000045
     3  C    0.307165   0.000317
     4  C   -0.168638  -0.000079
     5  C   -0.186095   0.000320
     6  C   -0.184775  -0.000038
     7  H    0.188005  -0.000012
     8  H    0.167420   0.000002
     9  H    0.167835  -0.000015
    10  H    0.168514   0.000002
    11  N   -0.475159   0.000975
    12  N   -0.556108   0.000370
    13  C   -0.339608   0.000030
    14  H    0.234609   0.000004
    15  H    0.209115  -0.000140
    16  H    0.169685   0.000007
    17  C    0.192160   0.002640
    18  S    1.161308   0.005786
    19  O   -0.530033   0.002281
    20  O   -0.565123   0.000223
    21  C   -0.494199   0.031140
    22  C   -0.366577  -0.080131
    23  H    0.233182   0.000604
    24  H    0.227565  -0.001517
    25  C   -0.106946   1.024896
    26  H    0.220674   0.000728
    27  H    0.219539   0.028852
    28  C   -0.563294  -0.101858
    29  H    0.187148  -0.054085
    30  H    0.221989   0.006944
    31  H    0.246614   0.021259
    32  S    1.143626   0.063976
    33  C   -0.518979   0.016932
    34  O   -0.586637   0.005321
    35  O   -0.555967   0.024820
    36  C   -0.321070  -0.001908
    37  H    0.233832   0.000050
    38  H    0.212598  -0.000926
    39  H    0.197414   0.000414
    40  C   -0.187524   0.000745
    41  H    0.192898   0.000273
    42  C    0.466739   0.000176
    43  C   -0.298848   0.000239
    44  H    0.187582  -0.000029
    45  N   -0.553380   0.000191
    46  N   -0.595370   0.000040
    47  C   -0.350694   0.000011
    48  H    0.195876  -0.000013
    49  H    0.199005  -0.000000
    50  H    0.189240  -0.000001
    51  H    0.163805   0.000051
    52  H    0.146681  -0.000014
    53  C   -0.301780  -0.000003
    54  C    0.296356   0.000017
    55  C    0.183458  -0.000207
    56  H    0.157771  -0.000012
    57  H    0.162760  -0.000000
    58  C   -0.481936   0.000005
    59  C   -0.172957  -0.000003
    60  C   -0.197992   0.000071
    61  H    0.160228  -0.000000
    62  H    0.170283   0.000002
    63  H    0.160661   0.000000
    64  C   -0.173667   0.000009
    65  H    0.150790   0.000000
    66  C   -0.175020  -0.000017
    67  H    0.173068  -0.000004
    68  H    0.166080  -0.000003
    69  H    0.168301   0.000000
 Sum of Mulliken charges =  -0.00000   1.00000
 Mulliken charges and spin densities with hydrogens summed into heavy atoms:
               1          2
     1  C    0.015055   0.000234
     2  C    0.179750   0.000045
     3  C    0.307165   0.000317
     4  C   -0.001219  -0.000077
     5  C   -0.018260   0.000305
     6  C   -0.016261  -0.000035
    11  N   -0.475159   0.000975
    12  N   -0.556108   0.000370
    13  C    0.273802  -0.000098
    17  C    0.192160   0.002640
    18  S    1.161308   0.005786
    19  O   -0.530033   0.002281
    20  O   -0.565123   0.000223
    21  C   -0.033452   0.030227
    22  C    0.073635  -0.050551
    25  C    0.080202   0.970811
    28  C   -0.094690  -0.073654
    32  S    1.143626   0.063976
    33  C   -0.072550   0.016056
    34  O   -0.586637   0.005321
    35  O   -0.555967   0.024820
    36  C    0.069242  -0.001221
    40  C    0.000058   0.000715
    42  C    0.466739   0.000176
    43  C    0.011639   0.000276
    45  N   -0.553380   0.000191
    46  N   -0.595370   0.000040
    47  C    0.233427  -0.000003
    53  C    0.018751  -0.000016
    54  C    0.296356   0.000017
    55  C    0.183458  -0.000207
    58  C    0.009236   0.000007
    59  C   -0.022167  -0.000003
    60  C   -0.024924   0.000067
    64  C   -0.007588   0.000007
    66  C   -0.006718  -0.000017
 Electronic spatial extent (au):  <R**2>=          18727.7523
 Charge=              0.0000 electrons
 Dipole moment (field-independent basis, Debye):
    X=              4.1583    Y=             -7.2597    Z=              0.4032  Tot=              8.3760
 Quadrupole moment (field-independent basis, Debye-Ang):
   XX=           -229.1835   YY=           -231.4558   ZZ=           -226.5186
   XY=             14.1289   XZ=             10.4357   YZ=             25.8958
 Traceless Quadrupole moment (field-independent basis, Debye-Ang):
   XX=             -0.1308   YY=             -2.4032   ZZ=              2.5340
   XY=             14.1289   XZ=             10.4357   YZ=             25.8958
 Octapole moment (field-independent basis, Debye-Ang**2):
  XXX=             52.8463  YYY=              2.1771  ZZZ=            -18.6355  XYY=             53.4319
  XXY=           -152.1048  XXZ=             42.4103  XZZ=            -20.7997  YZZ=             -5.2501
  YYZ=              7.5192  XYZ=             47.9554
[...]
 1,-0.00023387,0.05656704,-0.08054693,0.09144378,-0.00000013,-0.0000002
 8,-0.00000306,-0.00000132,-0.00000150,0.00000145,0.00000304,-0.0000041
 9,0.00000058,0.00118370,0.00726594,0.00183883,-0.00010598,-0.00115134,
 -0.00045968,0.00084574,0.00175620,0.00228329,-0.06266536,0.07373087,-0
 .00000548,0.00000085,-0.00000109,0.00000384,-0.00001418,-0.00000935,-0
 .00000473,-0.00000953,0.00000943,-0.00000831,-0.00000205,-0.00000458,0
 .00000345,-0.00001327,-0.00000109,-0.00000295,-0.00000685,0.00000680,0
 .00000287,0.00000077,0.00000100,0.00000327,0.00000325,0.00000520,0.000
 00179,0.00000028,0.00000084,0.00000078,0.00000043,0.00000145,0.0000090
 3,-0.00001142,0.00001621,-0.00000771,-0.00002215,-0.00002428,0.0000011
 7,0.00000930,0.00001549,-0.00000654,0.00000042,-0.00000726,-0.00000430
 ,0.00001671,0.00000034,0.00000245,-0.00000145,0.00000024,0.00004211,0.
 00004180,0.00001555,-0.00012852,0.00009913,-0.00003684,0.00004427,-0.0
 0003789,0.00000856,0.00004922,-0.00003980,0.00001780,0.00002873,-0.000
 05613,-0.00001898,-0.00003269,0.00004579,0.00001045,0.00000924,0.00002
 674,0.00004280,-0.00004965,0.00020127,-0.00003329,-0.00015173,-0.00016
 524,-0.00013661,0.00002624,-0.00000877,0.00002415,-0.00002654,-0.00005
 183,-0.00000532,0.00011911,0.00004918,0.00002236,0.00013314,-0.0000717
 2,-0.00013694,-0.00000707,-0.00001728,-0.00000070,-0.00002413,0.000002
 38,0.00004728,-0.00006801,0.00022808,-0.00015097,0.00002313,-0.0000458
 3,-0.00000129,0.00007949,-0.00016854,0.00004050,-0.00001487,-0.0000468
 7,0.00008706,-0.00000597,0.00001531,0.00000012,-0.00000128,0.00002877,
 -0.00002010,0.00000580,-0.00000679,-0.00000365,0.00000447,-0.00001383,
 -0.00000087,-0.00002943,0.00008615,0.00006921,-0.00000617,0.00000147,0
 .00001263,-0.00030294,0.00009898,-0.00063553,0.00002203,-0.00000481,-0
 .00002647,0.00003858,0.00000350,-0.00000292,-0.00041838,-0.00212366,0.
 00174988,-0.00031066,0.00036936,-0.00113636,0.00042591,0.00003686,0.00
 009280,-0.00001371,0.00005749,-0.00010738,-0.00001129,0.00002704,-0.00
 008312,-0.00002095,-0.00000975,0.00004241,-0.00000677,-0.00001630,-0.0
 0000500,-0.00000918,-0.00000033,0.00001098,-0.00001036,0.00000264,-0.0
 0000240,0.00336214,0.00252137,-0.00094761,-0.01660522,0.00991036,-0.01
 535337,0.00000715,-0.00000108,-0.00000375,0.00000720,0.00000171,0.0000
 0293,0.00000760,-0.00000049,-0.00000054,0.00103685,-0.00023154,-0.0003
 8393,-0.11275251,0.09205767,-0.23188044,-0.00000141,-0.00000080,0.0000
 0280,0.00000255,0.00000290,-0.00000109,-0.00000187,-0.00000174,-0.0000
 0102,0.00129894,0.00199977,0.00247836,-0.00019991,-0.00042990,-0.00019
 553,0.00212162,-0.00152695,0.00579930,0.12271312,-0.10107553,0.2406832
 1,0.00008566,-0.00001935,0.00005961,0.00007313,-0.00003706,0.00020202,
 0.00015867,-0.00011696,-0.00006593,0.00000450,-0.00001185,0.00003701,-
 0.00001959,0.00001224,0.00000729,-0.00000744,0.00002988,0.00000266,-0.
 00003354,0.00003658,0.00002176,-0.00000243,-0.00000296,-0.00000423,-0.
 00000603,0.00000184,0.00000194,0.00000501,0.00000020,0.00000334,-0.000
 63042,-0.00027945,-0.00103717,0.00005459,0.00018815,-0.00018383,-0.000
 01673,0.00003243,0.00003776,-0.00000106,-0.00000644,0.00000157,0.00000
 786,-0.00001487,-0.00001582,0.00000257,0.00000001,-0.00000255,-0.00018
 149,-0.00003551,0.00039949,-0.00024218,0.00032846,0.00031698,-0.000011
 81,-0.00003591,-0.00011653,0.00006957,-0.00005175,-0.00005546,0.000034
 52,0.00001708,0.00002418,0.00001382,0.00001375,-0.00000004,-0.00000019
 ,-0.00001189,-0.00000769,-0.00009400,-0.00004712,-0.00002676,-0.000015
 54,-0.00001542,-0.00001164,-0.00000240,0.00000195,0.00000112,-0.000006
 54,0.00000289,-0.00000259,0.00000893,0.00000788,0.00000849,0.00001060,
 -0.00000380,-0.00000224,0.00000301,-0.00000112,-0.00000296,-0.00000210
 ,0.00000234,0.00000167,-0.00000762,-0.00003811,-0.00001486,0.00000668,
 0.00000439,-0.00000319,0.00001452,0.00003262,0.00001080,0.00000200,0.0
 0001381,0.00000933,0.00000813,-0.00001280,-0.00000273,0.00000394,-0.00
 000534,-0.00000510,0.00000038,0.00000258,0.00000066,-0.00000219,0.0000
 0357,0.00000070,-0.00001846,-0.00001114,-0.00007060,0.00000279,-0.0000
 0058,-0.00000109,0.00028634,-0.00026396,0.00053671,-0.00000535,0.00001
 081,0.00000141,-0.00002356,-0.00000011,0.00000791,0.00009989,0.0001094
 4,-0.00028702,-0.00074248,0.00029593,-0.00012655,-0.00004264,0.0000431
 4,-0.00009739,-0.00000601,-0.00001648,0.00002393,-0.00000227,-0.000011
 31,0.00002122,0.00000499,-0.00000406,-0.00002684,0.00000248,0.00000277
 ,0.00000095,0.00000392,-0.00000034,-0.00000194,0.00000639,-0.00000340,
 -0.00000039,0.00090659,-0.00058561,0.00216785,0.00041477,-0.00010249,-
 0.00012961,-0.00000138,0.00000026,0.00000035,-0.00000083,0.00000033,0.
 00000052,-0.00000469,0.00000285,0.00000056,-0.00991975,0.00135028,-0.0
 0048235,0.00060969,0.00134716,-0.00225308,0.00000104,-0.00000016,0.000
 00040,-0.00000192,-0.00000269,0.00000098,0.00000108,-0.00000060,-0.000
 00076,-0.35045807,0.02510960,0.01622619,0.00043941,-0.00026101,-0.0003
 3787,-0.00964525,0.00021733,0.00259948,-0.00049595,-0.00001861,0.00018
 606,0.36867730,-0.00013213,-0.00001247,0.00000883,-0.00011324,0.000528
 94,-0.00015864,-0.00022105,-0.00005880,0.00024253,-0.00001472,0.000059
 28,-0.00005800,0.00005051,-0.00007050,-0.00000273,-0.00002660,-0.00012
 325,0.00003618,0.00012924,0.00002314,-0.00000752,-0.00000550,-0.000009
 25,0.00001350,0.00001140,-0.00000538,0.00000179,0.00000826,-0.00001580
 ,0.00001723,0.00011447,0.00013469,0.00014198,-0.00032068,-0.00022854,0
 .00018469,0.00002424,-0.00005543,0.00000174,0.00001374,0.00000793,-0.0
 0002039,-0.00000333,0.00001739,0.00002350,-0.00001023,0.00000518,0.000
 01828,0.00073708,-0.00024107,-0.00031770,0.00081156,-0.00035811,-0.001
 08738,-0.00032692,0.00048045,0.00065908,-0.00017328,0.00011281,0.00026
 357,-0.00008794,-0.00008233,-0.00002711,-0.00002767,-0.00004552,0.0000
 0766,-0.00002288,0.00002548,0.00000277,0.00012915,0.00024677,0.0001416
 1,0.00002504,0.00004089,0.00001567,0.00000518,-0.00000349,-0.00000312,
 0.00001510,-0.00000808,0.00000644,-0.00001745,-0.00001329,-0.00002162,
 -0.00001730,0.00000028,0.00000084,-0.00000956,0.00000159,0.00000621,0.
 00000566,-0.00000609,-0.00000137,0.00009823,0.00002394,0.00000017,-0.0
 0000495,-0.00000568,0.00000396,-0.00007025,-0.00000811,0.00000574,-0.0
 0003263,-0.00000939,0.00001364,0.00007603,0.00000920,-0.00001676,-0.00
 000129,0.00000843,0.00000476,-0.00000203,-0.00000413,-0.00000486,0.000
 00135,-0.00001742,-0.00001579,-0.00008787,-0.00027201,-0.00022934,0.00
 000300,0.00000741,0.00000120,-0.00005530,-0.00037912,0.00005184,-0.000
 01902,0.00000714,0.00000033,-0.00006659,-0.00000552,0.00004134,0.00008
 372,-0.00007922,-0.00019542,-0.00024072,0.00126776,0.00018873,0.000042
 66,0.00007148,-0.00003628,0.00001078,0.00000427,-0.00001470,-0.0000200
 1,-0.00000127,0.00000263,0.00000644,0.00003468,0.00001267,-0.00000055,
 -0.00000805,0.00000119,0.00000096,0.00000109,-0.00000287,0.00000097,-0
 .00001060,0.00000283,-0.00018625,0.00540694,0.00394166,-0.00037289,-0.
 00083696,0.00016841,0.00000372,-0.00000091,-0.00000246,0.00000079,0.00
 000121,0.00000130,-0.00000323,0.00000332,0.00000297,-0.00926376,0.0037
 3091,0.00054006,0.00142885,0.00410678,0.00427831,-0.00000038,-0.000000
 38,0.00000006,0.00000019,-0.00000154,0.00000065,0.00000071,-0.00000252
 ,-0.00000130,0.02303470,-0.04178858,0.00725789,-0.00045106,-0.00369222
 ,-0.00208310,0.01242369,0.00179501,-0.00184313,0.00068643,0.00008923,-
 0.00003741,-0.02697743,0.03305578,0.00004061,0.00006064,0.00013681,-0.
 00009845,0.00053746,-0.00057815,-0.00009374,-0.00003434,-0.00001385,-0
 .00002609,0.00000730,0.00002187,-0.00000020,-0.00004157,0.00001734,0.0
 0002524,-0.00000564,0.00000817,-0.00009976,0.00003455,0.00000667,-0.00
 000784,-0.00000590,0.00003371,-0.00000131,-0.00001343,0.00001704,0.000
 00353,-0.00002533,0.00001638,-0.00004707,0.00070505,0.00001544,-0.0006
 5967,-0.00004265,0.00058081,0.00011202,-0.00014810,-0.00010495,-0.0000
 0889,0.00000873,0.00000962,-0.00002842,0.00003003,0.00006943,-0.000028
 03,0.00000960,0.00003184,0.00106280,-0.00055308,-0.00066808,0.00041235
 ,-0.00084045,0.00038872,-0.00003601,0.00026817,-0.00026792,-0.00012044
 ,0.00026321,-0.00004237,-0.00002821,0.00007889,-0.00004850,-0.00006007
 ,-0.00005986,-0.00000848,0.00003838,0.00004602,0.00002740,0.00004628,0
 .00005527,0.00000159,0.00000826,0.00002401,0.00000315,0.00001761,-0.00
 001066,0.00000180,0.00000189,0.00000225,-0.00000086,-0.00000908,-0.000
 00956,-0.00002243,-0.00000759,0.00000175,-0.00001375,-0.00000909,0.000
 00113,0.00000465,0.00000241,-0.00000853,0.00000590,0.00009109,0.000099
 43,0.00003924,-0.00001017,-0.00000532,-0.00000294,-0.00008494,-0.00006
 716,-0.00003694,-0.00002889,-0.00003522,-0.00001350,0.00005370,0.00004
 276,-0.00000191,-0.00001268,0.00002165,0.00000194,-0.00000246,-0.00001
 088,-0.00000791,0.00000916,-0.00002794,-0.00002118,-0.00000909,-0.0001
 6027,0.00006369,-0.00000404,0.00000321,0.00000099,-0.00005433,0.000192
 40,-0.00078824,0.00001654,-0.00002833,0.00001412,0.00003744,0.00000205
 ,-0.00000471,-0.00011421,-0.00024953,0.00045387,0.00168949,-0.00009015
 ,0.00074964,0.00011506,-0.00003082,0.00024628,0.00001717,0.00002397,-0
 .00004766,0.00000286,0.00001295,-0.00003269,-0.00001119,0.00000761,0.0
 0005007,-0.00000588,-0.00001346,0.00000078,-0.00000628,0.00000128,-0.0
 0000519,-0.00001514,0.00000764,-0.00000742,0.00211728,0.00408198,-0.00
 362157,0.00027199,0.00019835,-0.00141593,0.00000612,-0.00000203,-0.000
 00222,0.00000022,0.00000032,-0.00000057,0.00001149,-0.00000286,0.00000
 300,0.02707049,-0.00293877,0.00226675,-0.00177758,0.00378628,-0.002841
 13,-0.00000236,0.,-0.00000198,0.00000352,0.00000559,-0.00000239,-0.000
 00156,-0.00000091,0.00000030,0.01412253,0.00723195,-0.05589418,-0.0006
 4056,-0.00189426,0.00019463,-0.02487512,0.00152447,0.00549288,-0.00121
 751,0.00017283,0.00018877,-0.01738692,-0.01065519,0.05510983,0.0000121
 1,-0.00001570,-0.00000632,-0.00000631,0.00001643,-0.00001680,-0.000019
 59,0.00000207,0.00000410,-0.00000227,-0.00000860,0.00001092,-0.0000005
 3,-0.00000060,0.00000481,-0.00000041,-0.00000026,0.00000120,-0.0000026
 4,0.00000526,-0.00000234,-0.00000077,-0.00000008,-0.00000104,-0.000000
 98,0.00000012,0.00000069,0.00000076,-0.00000003,-0.00000033,-0.0000085
 3,0.00001467,0.00001979,-0.00001382,-0.00000321,0.00001436,-0.00000833
 ,-0.00000044,0.00000464,0.00000211,-0.00000075,-0.00000178,-0.00000282
 ,0.00000106,-0.00000023,0.00000066,-0.00000003,0.00000050,0.00003424,-
 0.00000775,0.00000115,0.00008577,0.00002799,-0.00006014,-0.00005391,0.
 00006496,0.00010548,-0.00001523,0.00001522,0.00003503,0.00003966,-0.00
 000131,0.00002099,-0.00002206,-0.00002970,0.00002010,-0.00002467,-0.00
 000621,-0.00001483,-0.00004165,-0.00003346,0.00005729,-0.00001612,0.00
 002855,-0.00001594,0.00000874,0.00000372,-0.00000958,0.00001507,0.0000
 2421,0.00000441,0.00000672,0.00000529,0.00000881,-0.00000340,-0.000031
 38,0.00002297,0.00000183,-0.00000264,-0.00000011,0.00000232,0.00000336
 ,-0.00000373,-0.00002012,-0.00011944,-0.00002977,0.00000038,0.00001224
 ,-0.00000379,0.00001118,0.00005815,0.00002092,0.00000593,0.00003755,0.
 00001313,-0.00002890,-0.00003922,-0.00000039,0.00002315,-0.00003439,-0
 .00000757,-0.00000108,0.00000763,0.00001184,-0.00001151,0.00002213,0.0
 0001694,0.00011499,-0.00010543,0.00010935,0.00000155,0.00000246,0.0000
 0464,-0.00072905,0.00011282,-0.00026660,-0.00008022,0.00004182,0.00001
 172,0.00001524,0.00000471,-0.00000227,-0.00009740,-0.00048151,0.001710
 48,0.00054085,-0.00011936,0.00007491,-0.00003261,-0.00000279,-0.000082
 72,0.00000600,-0.00000227,0.00002026,-0.00000411,-0.00000903,0.0000290
 4,0.00001542,0.00000733,0.00004000,0.00000332,0.00000609,-0.00000489,0
 .00000171,-0.00000718,0.00001176,0.00002571,-0.00002740,0.00001893,-0.
 00112956,0.00026919,-0.00040102,-0.00521558,0.00218465,-0.00152812,-0.
 00000228,0.00000198,0.00000072,0.00000004,0.00000159,-0.00000174,-0.00
 002033,0.00000513,-0.00000108,-0.00109955,0.00197739,-0.00267599,-0.01
 111194,-0.00940584,0.02711519,0.00000213,-0.00000007,0.00000041,-0.000
 00502,-0.00000916,0.00000400,0.00000313,-0.00000109,-0.00000083,0.0119
 6927,0.00465812,-0.01457244,0.00049447,0.00030241,-0.00074000,-0.13325
 847,-0.03783896,0.12136057,0.00103838,-0.00043936,-0.00057215,0.000627
 08,-0.00059716,0.00022334,0.13798185,-0.00002781,0.00003436,0.00000995
 ,0.00001043,-0.00002177,0.00000815,0.00000859,0.00001291,0.00002631,0.
 00001115,0.00001740,-0.00002656,0.00000940,-0.00001723,-0.00000445,-0.
 00000977,-0.00000907,0.00001640,0.00000579,0.00000090,0.00000067,-0.00
 000120,0.00000059,-0.00000068,0.00000150,-0.00000268,0.00000180,0.0000
 0327,-0.00000504,0.00000441,-0.00000805,-0.00005496,-0.00003830,0.0000
 5278,-0.00003433,-0.00001196,0.00000245,-0.00000027,-0.00000452,0.0000
 0143,0.00000007,-0.00001060,0.00000409,-0.00000030,-0.00000850,0.00000
 290,-0.00000355,0.00000309,-0.00006537,0.00001792,0.00005368,0.0000302
 5,0.00008557,-0.00039552,0.00003746,0.00003350,0.00031734,0.00000313,0
 .00001098,0.00010811,-0.00006550,-0.00014138,0.00004147,0.00003121,0.0
 0001261,-0.00002360,0.00001739,0.00003887,0.00003469,0.00011093,0.0002
 8878,-0.00000649,0.00002561,-0.00000257,0.00000964,-0.00001305,-0.0000
 0067,0.00001349,-0.00000245,-0.00004530,-0.00000745,-0.00000414,-0.000
 00612,-0.00001550,0.00000399,0.00000986,-0.00000313,-0.00000791,0.0000
 0016,0.00000424,0.00000175,-0.00000403,0.00000283,0.00007816,0.0000291
 7,-0.00003283,-0.00000849,-0.00000795,0.00000687,-0.00004870,-0.000015
 16,0.00001599,-0.00003061,-0.00000505,0.00003235,0.00004855,0.00002919
 ,-0.00002305,0.00000410,0.00000050,0.00000046,-0.00000165,-0.00000239,
 -0.00000094,0.00000351,-0.00001598,-0.00000913,-0.00000078,-0.00023641
 ,-0.00009766,0.00000197,0.00000094,-0.00000210,-0.00001607,-0.00052655
 ,-0.00017450,-0.00007001,0.00000039,0.00001671,-0.00000842,0.00001072,
 0.00000317,0.00019153,0.00111488,0.00011049,0.00000231,-0.00016451,-0.
 00009800,-0.00006912,-0.00002028,-0.00001112,-0.00004431,-0.00001034,-
 0.00000591,0.00001859,0.00000869,0.00001763,0.00002670,0.00000517,-0.0
 0006563,-0.00000143,0.00000121,0.00000249,0.00000276,0.00000138,-0.000
 00454,0.00001049,-0.00001368,0.00001114,0.00029020,-0.00033880,-0.0001
 9710,0.00187092,0.00642896,0.00251154,-0.00000028,-0.00000130,-0.00000
 089,-0.00000369,0.00000073,-0.00000203,-0.00001071,0.00000296,0.000001
 10,0.00214004,0.00417454,0.00308238,0.00247546,0.00348414,-0.00415981,
 0.00000075,0.00000026,-0.00000104,-0.00000168,-0.00000416,0.00000174,0
 .00000209,-0.00000180,-0.00000070,-0.00693949,-0.00106364,0.00920677,-
 0.00024972,0.00015979,0.00050871,-0.03837409,-0.06094930,0.07386151,-0
 .00069978,-0.00382315,-0.00167600,-0.00021488,-0.00284833,-0.00153855,
 0.03945556,0.05437994,0.00000847,-0.00002374,-0.00001377,0.00000223,-0
 .00001410,-0.00000424,-0.00002604,-0.00001006,0.00004625,-0.00001335,-
 0.00001659,0.00000558,0.00000364,-0.00001812,0.00000556,-0.00000592,-0
 .00001268,0.00001289,0.00000350,0.00000688,-0.00000047,0.00000401,0.00
 000424,0.00000584,0.00000198,0.00000074,0.00000124,0.00000171,0.000002
 15,0.00000067,-0.00004226,-0.00006376,-0.00001414,-0.00000885,-0.00005
 283,0.00000668,0.00000621,0.00001204,0.00002022,0.00000411,0.00000220,
 -0.00001497,-0.00000184,0.00000796,0.00000166,0.00000049,-0.00000249,0
 .00000108,-0.00003499,0.00005908,0.00002511,0.00032380,0.00026212,-0.0
 0073586,-0.00010080,0.00004692,0.00054001,-0.00006572,-0.00003459,0.00
 016655,-0.00004364,-0.00017756,0.00007277,0.00000838,-0.00000519,-0.00
 004623,-0.00000669,0.00006140,0.00005076,0.00013925,0.00030035,-0.0001
 0943,0.00002574,-0.00000596,0.00001701,-0.00000477,-0.00001178,0.00001
 349,0.00000735,-0.00005492,0.,-0.00000578,-0.00001157,-0.00001657,-0.0
 0000176,0.00001715,-0.00000669,-0.00000750,0.00000031,0.00000627,0.000
 00082,-0.00000394,0.00000259,0.00002186,0.00011361,-0.00000478,0.00000
 118,-0.00001570,0.00000397,-0.00001112,-0.00007487,0.00000581,-0.00001
 212,-0.00003410,0.00000737,0.00002400,0.00002512,-0.00001759,-0.000009
 71,0.00001715,0.00000351,0.00000070,-0.00000534,-0.00000555,0.00000817
 ,-0.00001674,-0.00000892,-0.00001771,-0.00010630,-0.00000132,-0.000002
 60,0.00000218,0.00000171,0.00013880,-0.00034095,0.00017958,-0.00001739
 ,-0.00001142,0.00000017,0.00000482,0.00000113,-0.00000145,0.00023847,0
 .00045233,0.00001225,-0.00012665,-0.00008868,-0.00002031,-0.00004612,-
 0.00005212,0.00000720,0.00001627,0.00000661,-0.00000672,0.00000667,0.0
 0000938,0.00000121,0.00001864,0.00002888,0.00003565,-0.00000463,-0.000
 00535,-0.00000026,-0.00000221,0.00000211,0.00000358,-0.00000643,-0.000
 00140,0.00000458,-0.00099236,-0.00007968,0.00021555,-0.00044709,0.0021
 8161,0.00253687,0.00000287,-0.00000126,-0.00000153,0.00000164,0.000000
 36,-0.00000004,0.00000309,-0.00000184,0.00000031,-0.00330306,0.0033766
 5,-0.00159030,-0.00128942,-0.00027152,0.00315711,-0.00000181,0.0000001
 0,0.00000047,0.00000359,0.00000238,-0.00000104,-0.00000168,-0.00000089
 ,-0.00000034,0.01400692,0.00534076,-0.01545286,0.00078956,0.00039547,-
 0.00078853,0.12098976,0.07360954,-0.25062795,0.00011338,-0.00186001,-0
 .00014728,-0.00015916,-0.00147226,0.00024447,-0.13011089,-0.08138855,0
 .26221555\\0.00000216,0.00000426,-0.00000148,-0.00000259,-0.00000212,0
 .00000017,-0.00000022,-0.00001228,-0.00000098,0.00000319,0.00000475,-0
 .00000301,0.00000268,-0.00000128,-0.00000122,-0.00000014,0.,0.00000122
 ,-0.00000024,-0.00000092,-0.00000203,0.00000069,-0.00000026,-0.0000011
 4,0.00000110,0.00000131,-0.00000087,0.00000139,0.00000072,-0.00000179,
 -0.00000301,0.00000364,0.00000163,-0.00000932,0.00001176,-0.00000572,0
 .00000525,0.00000049,0.00000808,-0.00000031,-0.00000119,-0.00000056,-0
 .00000147,0.00000197,-0.00000273,0.00000163,0.00000134,-0.00000348,0.0
 0001311,-0.00000502,-0.00000810,-0.00000449,0.00000276,0.00000302,-0.0
 0000291,-0.00000063,-0.00000383,-0.00000038,-0.00000316,-0.00000603,0.
 00000505,0.00000017,-0.00000057,0.00000031,0.00000269,-0.00000091,-0.0
 0000149,0.00000012,-0.00000265,-0.00000100,0.00000003,-0.00000256,-0.0
 0000245,0.00000194,0.00000252,-0.00000038,-0.00000095,-0.00000166,-0.0
 0000058,0.00000031,-0.00000165,0.00000357,-0.00000544,0.00000038,0.000
 00018,-0.00000255,-0.00000028,-0.00000103,0.00000026,-0.00000002,-0.00
 000039,0.00000010,-0.00000014,-0.00000082,0.00000567,0.00000162,-0.000
 00156,-0.00000293,0.00000184,0.00000007,-0.00000094,0.00000171,0.00000
 042,0.00000009,-0.00000319,0.00000262,0.00000104,-0.00000069,-0.000000
 88,0.00000028,0.00000074,-0.00000038,-0.00000061,0.00000210,0.00000025
 ,0.00000031,0.00000080,0.00000161,-0.00000279,0.00000486,0.00000170,-0
 .00000037,0.00000125,-0.00000373,0.00000885,-0.00000411,0.00000224,0.0
 0000111,0.00000208,-0.00000128,-0.00000103,0.00000144,-0.00000325,-0.0
 0000108,0.00000323,0.00000438,-0.00000674,-0.00000152,-0.00000077,0.00
 000109,-0.00000014,0.00000036,0.00000020,0.00000097,-0.00000023,0.0000
 0004,0.00000106,-0.00000001,0.00000029,-0.00000018,-0.00000026,-0.0000
 0065,0.00000262,0.00000047,-0.00000039,0.00000209,-0.00000091,-0.00000
 052,0.00000156,0.00000037,-0.00000074,0.00000292,0.00000180,0.00000056
 ,-0.00000222,0.00000072,0.00000074,0.00000221,0.00000013,-0.00000066,0
 .00000325,0.00000048,0.00000026,0.00000377,-0.00000435,-0.00000151,0.0
 0000183,-0.00000576,-0.00000134,0.00000047,0.00000070,0.00000042,0.000
 00269,0.00000056,-0.00000007,0.00000305,0.00000048,-0.00000003,0.00000
 286,-0.00000048,0.00000245,-0.00000289,0.00000097,0.00000090,-0.000001
 21,0.00000320,-0.00000196,0.00000148,-0.00000156,-0.00000087,0.0000000
 9,-0.00000219,-0.00000117,-0.00000057,-0.00000305,-0.00000070,-0.00000
 147\\\@
 The archive entry for this job was punched.


 THE CAUTIOUS SELDOM ERR...CONFUCIUS                   
 Job cpu time:       1 days  0 hours 25 minutes 47.0 seconds.
 Elapsed time:       0 days  0 hours 16 minutes  6.7 seconds.
 File lengths (MBytes):  RWF=   5642 Int=      0 D2E=      0 Chk=     45 Scr=      1
 Normal termination of Gaussian 16 at Fri Nov 21 15:15:57 2025.
