 Entering Gaussian System, Link 0=g16
 Initial command:
 /public/software/g16/l1.exe "/tmp/Gau-50521.inp" -scrdir="/tmp/"
 Entering Link 1 = /public/software/g16/l1.exe PID=     50522.
  
 Copyright (c) 1988-2021, Gaussian, Inc.  All Rights Reserved.
  
 This is part of the Gaussian(R) 16 program.  It is based on
 the Gaussian(R) 09 system (copyright 2009, Gaussian, Inc.),
 the Gaussian(R) 03 system (copyright 2003, Gaussian, Inc.),
 the Gaussian(R) 98 system (copyright 1998, Gaussian, Inc.),
 the Gaussian(R) 94 system (copyright 1995, Gaussian, Inc.),
 the Gaussian 92(TM) system (copyright 1992, Gaussian, Inc.),
 the Gaussian 90(TM) system (copyright 1990, Gaussian, Inc.),
 the Gaussian 88(TM) system (copyright 1988, Gaussian, Inc.),
 the Gaussian 86(TM) system (copyright 1986, Carnegie Mellon
 University), and the Gaussian 82(TM) system (copyright 1983,
 Carnegie Mellon University). Gaussian is a federally registered
 trademark of Gaussian, Inc.
  
 This software contains proprietary and confidential information,
 including trade secrets, belonging to Gaussian, Inc.
  
 This software is provided under written license and may be
 used, copied, transmitted, or stored only in accord with that
 written license.
  
 The following legend is applicable only to US Government
 contracts under FAR:
  
                    RESTRICTED RIGHTS LEGEND
  
 Use, reproduction and disclosure by the US Government is
 subject to restrictions as set forth in subparagraphs (a)
 and (c) of the Commercial Computer Software - Restricted
 Rights clause in FAR 52.227-19.
  
 Gaussian, Inc.
 340 Quinnipiac St., Bldg. 40, Wallingford CT 06492
  
  
 ---------------------------------------------------------------
 Warning -- This program may not be used in any manner that
 competes with the business of Gaussian, Inc. or will provide
 assistance to any competitor of Gaussian, Inc.  The licensee
 of this program is prohibited from giving any competitor of
 Gaussian, Inc. access to this program.  By using this program,
 the user acknowledges that Gaussian, Inc. is engaged in the
 business of creating and licensing software in the field of
 computational chemistry and represents and warrants to the
 licensee that it is not a competitor of Gaussian, Inc. and that
 it will not use this program in any manner prohibited above.
 ---------------------------------------------------------------
  

 Cite this work as:
 Gaussian 16, Revision C.02,
 M. J. Frisch, G. W. Trucks, H. B. Schlegel, G. E. Scuseria, 
 M. A. Robb, J. R. Cheeseman, G. Scalmani, V. Barone, 
 G. A. Petersson, H. Nakatsuji, X. Li, M. Caricato, A. V. Marenich, 
 J. Bloino, B. G. Janesko, R. Gomperts, B. Mennucci, H. P. Hratchian, 
 J. V. Ortiz, A. F. Izmaylov, J. L. Sonnenberg, D. Williams-Young, 
 F. Ding, F. Lipparini, F. Egidi, J. Goings, B. Peng, A. Petrone, 
 T. Henderson, D. Ranasinghe, V. G. Zakrzewski, J. Gao, N. Rega, 
 G. Zheng, W. Liang, M. Hada, M. Ehara, K. Toyota, R. Fukuda, 
 J. Hasegawa, M. Ishida, T. Nakajima, Y. Honda, O. Kitao, H. Nakai, 
 T. Vreven, K. Throssell, J. A. Montgomery, Jr., J. E. Peralta, 
 F. Ogliaro, M. J. Bearpark, J. J. Heyd, E. N. Brothers, K. N. Kudin, 
 V. N. Staroverov, T. A. Keith, R. Kobayashi, J. Normand, 
 K. Raghavachari, A. P. Rendell, J. C. Burant, S. S. Iyengar, 
 J. Tomasi, M. Cossi, J. M. Millam, M. Klene, C. Adamo, R. Cammi, 
 J. W. Ochterski, R. L. Martin, K. Morokuma, O. Farkas, 
 J. B. Foresman, and D. J. Fox, Gaussian, Inc., Wallingford CT, 2019.
 
 ******************************************
 Gaussian 16:  ES64L-G16RevC.02  7-Dec-2021
                21-Nov-2025 
 ******************************************
 %nprocshared=96
 Will use up to   96 processors via shared memory.
 %mem=10GB
 %chk=IM6.chk
 -------------------------
 # opt freq 6-31g(d) m062x
 -------------------------
 1/18=20,19=15,26=3,38=1/1,3;
 2/9=110,12=2,17=6,18=5,40=1/2;
 3/5=1,6=6,7=1,11=2,25=1,30=1,71=1,74=-55/1,2,3;
 4//1;
 5/5=2,38=5/2;
 6/7=2,8=2,9=2,10=2,28=1/1;
 7//1,2,3,16;
 1/18=20,19=15,26=3/3(2);
 2/9=110/2;
 99//99;
 2/9=110/2;
 3/5=1,6=6,7=1,11=2,25=1,30=1,71=1,74=-55/1,2,3;
 4/5=5,16=3,69=1/1;
 5/5=2,38=5/2;
 7//1,2,3,16;
 1/18=20,19=15,26=3/3(-5);
 2/9=110/2;
 6/7=2,8=2,9=2,10=2,19=2,28=1/1;
 99/9=1/99;
 -------------------
 Title Card Required
 -------------------
 Symbolic Z-matrix:
 Charge =  0 Multiplicity = 2
 C                    -5.19529  -2.80471   2.02261 
 C                    -4.815    -1.70806   1.23984 
 C                    -4.70746  -0.43127   1.82283 
 C                    -4.97908  -0.19809   3.17295 
 C                    -5.35513  -1.29808   3.93114 
 C                    -5.46101  -2.58418   3.36552 
 H                    -5.27783  -3.79257   1.58052 
 H                    -4.9073    0.79043   3.61484 
 H                    -5.57554  -1.16315   4.98525 
 H                    -5.75904  -3.41522   3.99675 
 N                    -4.50284  -1.63985  -0.10622 
 N                    -4.30725   0.40472   0.79716 
 C                    -4.13034   1.84095   0.93205 
 H                    -5.0395    2.37989   0.64881 
 H                    -3.8932    2.06304   1.97313 
 H                    -3.29905   2.1832    0.31678 
 C                    -4.21766  -0.37706  -0.33187 
 S                     0.2885   -0.62965  -1.64999 
 O                     0.92663  -1.9373   -1.45244 
 O                     0.51407   0.0707   -2.92347 
 C                    -1.47637  -0.83667  -1.40666 
 C                    -2.2897    0.40181  -1.76519 
 H                    -1.61041  -1.15716  -0.36875 
 H                    -1.72571  -1.6844   -2.05484 
 C                    -3.80239   0.12183  -1.68994 
 H                    -2.02707   1.23529  -1.10408 
 H                    -2.04256   0.71093  -2.7856 
 C                    -4.62115   1.31811  -2.20145 
 H                    -4.01105  -0.72751  -2.35121 
 H                    -4.31587   2.24231  -1.69589 
 H                    -4.37139   1.45803  -3.26058 
 C                    -6.13027   1.12721  -2.05722 
 C                    -6.91361   2.29322  -2.65408 
 H                    -6.38894   1.01574  -0.99589 
 H                    -6.42262   0.18827  -2.54423 
 H                    -7.99149   2.14859  -2.54084 
 H                    -6.64564   3.23353  -2.1603 
 H                    -6.69721   2.4031   -3.72176 
 C                     0.81647   0.47486  -0.3325 
 H                     0.16326   1.35113  -0.37536 
 C                     2.28414   0.89033  -0.51908 
 H                     2.41262   1.26195  -1.54056 
 C                     2.58226   2.03846   0.46059 
 H                     2.40969   1.69539   1.48439 
 H                     1.90546   2.87151   0.24899 
 H                     0.67324  -0.05032   0.61595 
 C                     4.02804   2.50712   0.32504 
 H                     4.74311   1.74431   0.63982 
 H                     4.26925   2.86474  -0.67857 
 C                     3.2094   -0.26945  -0.25741 
 C                     4.34184  -1.74939   0.79034 
 C                     4.57848  -1.95814  -0.58172 
 C                     4.95609  -2.57843   1.73701 
 C                     5.40519  -2.97716  -1.05987 
 C                     5.78037  -3.59231   1.27285 
 H                     4.78353  -2.4257    2.7976 
 C                     6.00073  -3.78952  -0.10567 
 H                     5.57369  -3.12834  -2.12136 
 H                     6.26796  -4.25235   1.98321 
 H                     6.65131  -4.59641  -0.42738 
 N                     3.482    -0.67971   0.9599 
 N                     3.84813  -0.98641  -1.2332 
 C                     3.7282   -0.90343  -2.67815 
 H                     4.71449  -0.74637  -3.12102 
 H                     3.29372  -1.83125  -3.0585 
 H                     3.07021  -0.08182  -2.95516 
 S                     4.30746   3.93214   1.43464 
 O                     4.10804   3.44075   2.81418 
 O                     3.47546   5.04239   0.92498 
 

 GradGradGradGradGradGradGradGradGradGradGradGradGradGradGradGradGradGrad
 Berny optimization.
 Initialization pass.
                           ----------------------------
                           !    Initial Parameters    !
                           ! (Angstroms and Degrees)  !
 --------------------------                            --------------------------
 ! Name  Definition              Value          Derivative Info.                !
 --------------------------------------------------------------------------------
 ! R1    R(1,2)                  1.4            estimate D2E/DX2                !
 ! R2    R(1,6)                  1.3866         estimate D2E/DX2                !
 ! R3    R(1,7)                  1.0854         estimate D2E/DX2                !
 ! R4    R(2,3)                  1.4077         estimate D2E/DX2                !
 ! R5    R(2,11)                 1.3835         estimate D2E/DX2                !
 ! R6    R(3,4)                  1.3968         estimate D2E/DX2                !
 ! R7    R(3,12)                 1.3824         estimate D2E/DX2                !
 ! R8    R(4,5)                  1.3879         estimate D2E/DX2                !
 ! R9    R(4,8)                  1.0852         estimate D2E/DX2                !
 ! R10   R(5,6)                  1.409          estimate D2E/DX2                !
 ! R11   R(5,9)                  1.0853         estimate D2E/DX2                !
 ! R12   R(6,10)                 1.0853         estimate D2E/DX2                !
 ! R13   R(11,17)                1.3141         estimate D2E/DX2                !
 ! R14   R(12,13)                1.4534         estimate D2E/DX2                !
 ! R15   R(12,17)                1.3762         estimate D2E/DX2                !
 ! R16   R(13,14)                1.0942         estimate D2E/DX2                !
 ! R17   R(13,15)                1.0906         estimate D2E/DX2                !
 ! R18   R(13,16)                1.0894         estimate D2E/DX2                !
 ! R19   R(17,25)                1.5052         estimate D2E/DX2                !
 ! R20   R(18,19)                1.4684         estimate D2E/DX2                !
 ! R21   R(18,20)                1.4708         estimate D2E/DX2                !
 ! R22   R(18,21)                1.7936         estimate D2E/DX2                !
 ! R23   R(18,39)                1.7985         estimate D2E/DX2                !
 ! R24   R(21,22)                1.5244         estimate D2E/DX2                !
 ! R25   R(21,23)                1.0945         estimate D2E/DX2                !
 ! R26   R(21,24)                1.0959         estimate D2E/DX2                !
 ! R27   R(22,25)                1.5402         estimate D2E/DX2                !
 ! R28   R(22,26)                1.0958         estimate D2E/DX2                !
 ! R29   R(22,27)                1.0945         estimate D2E/DX2                !
 ! R30   R(25,28)                1.5372         estimate D2E/DX2                !
 ! R31   R(25,29)                1.0964         estimate D2E/DX2                !
 ! R32   R(28,30)                1.0968         estimate D2E/DX2                !
 ! R33   R(28,31)                1.0971         estimate D2E/DX2                !
 ! R34   R(28,32)                1.528          estimate D2E/DX2                !
 ! R35   R(32,33)                1.5263         estimate D2E/DX2                !
 ! R36   R(32,34)                1.0981         estimate D2E/DX2                !
 ! R37   R(32,35)                1.0974         estimate D2E/DX2                !
 ! R38   R(33,36)                1.0934         estimate D2E/DX2                !
 ! R39   R(33,37)                1.0954         estimate D2E/DX2                !
 ! R40   R(33,38)                1.0949         estimate D2E/DX2                !
 ! R41   R(39,40)                1.0938         estimate D2E/DX2                !
 ! R42   R(39,41)                1.5367         estimate D2E/DX2                !
 ! R43   R(39,46)                1.0936         estimate D2E/DX2                !
 ! R44   R(41,42)                1.0946         estimate D2E/DX2                !
 ! R45   R(41,43)                1.5385         estimate D2E/DX2                !
 ! R46   R(41,50)                1.5065         estimate D2E/DX2                !
 ! R47   R(43,44)                1.0935         estimate D2E/DX2                !
 ! R48   R(43,45)                1.094          estimate D2E/DX2                !
 ! R49   R(43,47)                1.5259         estimate D2E/DX2                !
 ! R50   R(47,48)                1.0919         estimate D2E/DX2                !
 ! R51   R(47,49)                1.0924         estimate D2E/DX2                !
 ! R52   R(47,67)                1.8276         estimate D2E/DX2                !
 ! R53   R(50,61)                1.3132         estimate D2E/DX2                !
 ! R54   R(50,62)                1.369          estimate D2E/DX2                !
 ! R55   R(51,52)                1.4079         estimate D2E/DX2                !
 ! R56   R(51,53)                1.4003         estimate D2E/DX2                !
 ! R57   R(51,61)                1.3829         estimate D2E/DX2                !
 ! R58   R(52,54)                1.3966         estimate D2E/DX2                !
 ! R59   R(52,62)                1.3792         estimate D2E/DX2                !
 ! R60   R(53,55)                1.3867         estimate D2E/DX2                !
 ! R61   R(53,56)                1.0853         estimate D2E/DX2                !
 ! R62   R(54,57)                1.3875         estimate D2E/DX2                !
 ! R63   R(54,58)                1.0854         estimate D2E/DX2                !
 ! R64   R(55,57)                1.4099         estimate D2E/DX2                !
 ! R65   R(55,59)                1.0854         estimate D2E/DX2                !
 ! R66   R(57,60)                1.0853         estimate D2E/DX2                !
 ! R67   R(62,63)                1.4523         estimate D2E/DX2                !
 ! R68   R(63,64)                1.0925         estimate D2E/DX2                !
 ! R69   R(63,65)                1.0928         estimate D2E/DX2                !
 ! R70   R(63,66)                1.0885         estimate D2E/DX2                !
 ! R71   R(67,68)                1.478          estimate D2E/DX2                !
 ! R72   R(67,69)                1.4781         estimate D2E/DX2                !
 ! A1    A(2,1,6)              117.9682         estimate D2E/DX2                !
 ! A2    A(2,1,7)              120.3872         estimate D2E/DX2                !
 ! A3    A(6,1,7)              121.6444         estimate D2E/DX2                !
 ! A4    A(1,2,3)              119.9782         estimate D2E/DX2                !
 ! A5    A(1,2,11)             130.0849         estimate D2E/DX2                !
 ! A6    A(3,2,11)             109.9368         estimate D2E/DX2                !
 ! A7    A(2,3,4)              122.4709         estimate D2E/DX2                !
 ! A8    A(2,3,12)             105.2686         estimate D2E/DX2                !
 ! A9    A(4,3,12)             132.2605         estimate D2E/DX2                !
 ! A10   A(3,4,5)              116.6422         estimate D2E/DX2                !
 ! A11   A(3,4,8)              122.1965         estimate D2E/DX2                !
 ! A12   A(5,4,8)              121.1606         estimate D2E/DX2                !
 ! A13   A(4,5,6)              121.6345         estimate D2E/DX2                !
 ! A14   A(4,5,9)              119.1483         estimate D2E/DX2                !
 ! A15   A(6,5,9)              119.2169         estimate D2E/DX2                !
 ! A16   A(1,6,5)              121.3037         estimate D2E/DX2                !
 ! A17   A(1,6,10)             119.6125         estimate D2E/DX2                !
 ! A18   A(5,6,10)             119.0837         estimate D2E/DX2                !
 ! A19   A(2,11,17)            105.2731         estimate D2E/DX2                !
 ! A20   A(3,12,13)            124.3321         estimate D2E/DX2                !
 ! A21   A(3,12,17)            106.4995         estimate D2E/DX2                !
 ! A22   A(13,12,17)           129.02           estimate D2E/DX2                !
 ! A23   A(12,13,14)           111.1975         estimate D2E/DX2                !
 ! A24   A(12,13,15)           108.4391         estimate D2E/DX2                !
 ! A25   A(12,13,16)           110.5443         estimate D2E/DX2                !
 ! A26   A(14,13,15)           109.1161         estimate D2E/DX2                !
 ! A27   A(14,13,16)           109.4574         estimate D2E/DX2                !
 ! A28   A(15,13,16)           108.0132         estimate D2E/DX2                !
 ! A29   A(11,17,12)           113.0094         estimate D2E/DX2                !
 ! A30   A(11,17,25)           122.228          estimate D2E/DX2                !
 ! A31   A(12,17,25)           124.742          estimate D2E/DX2                !
 ! A32   A(19,18,20)           118.2871         estimate D2E/DX2                !
 ! A33   A(19,18,21)           107.8534         estimate D2E/DX2                !
 ! A34   A(19,18,39)           108.71           estimate D2E/DX2                !
 ! A35   A(20,18,21)           108.8658         estimate D2E/DX2                !
 ! A36   A(20,18,39)           107.2679         estimate D2E/DX2                !
 ! A37   A(21,18,39)           105.0922         estimate D2E/DX2                !
 ! A38   A(18,21,22)           113.5351         estimate D2E/DX2                !
 ! A39   A(18,21,23)           106.4366         estimate D2E/DX2                !
 ! A40   A(18,21,24)           103.4698         estimate D2E/DX2                !
 ! A41   A(22,21,23)           113.3022         estimate D2E/DX2                !
 ! A42   A(22,21,24)           111.5897         estimate D2E/DX2                !
 ! A43   A(23,21,24)           107.8496         estimate D2E/DX2                !
 ! A44   A(21,22,25)           111.3964         estimate D2E/DX2                !
 ! A45   A(21,22,26)           110.3765         estimate D2E/DX2                !
 ! A46   A(21,22,27)           109.1632         estimate D2E/DX2                !
 ! A47   A(25,22,26)           110.1319         estimate D2E/DX2                !
 ! A48   A(25,22,27)           108.5821         estimate D2E/DX2                !
 ! A49   A(26,22,27)           107.0701         estimate D2E/DX2                !
 ! A50   A(17,25,22)           112.0418         estimate D2E/DX2                !
 ! A51   A(17,25,28)           114.2803         estimate D2E/DX2                !
 ! A52   A(17,25,29)           103.586          estimate D2E/DX2                !
 ! A53   A(22,25,28)           111.4307         estimate D2E/DX2                !
 ! A54   A(22,25,29)           107.3527         estimate D2E/DX2                !
 ! A55   A(28,25,29)           107.5041         estimate D2E/DX2                !
 ! A56   A(25,28,30)           110.7397         estimate D2E/DX2                !
 ! A57   A(25,28,31)           107.4103         estimate D2E/DX2                !
 ! A58   A(25,28,32)           113.4161         estimate D2E/DX2                !
 ! A59   A(30,28,31)           105.9118         estimate D2E/DX2                !
 ! A60   A(30,28,32)           109.6743         estimate D2E/DX2                !
 ! A61   A(31,28,32)           109.3841         estimate D2E/DX2                !
 ! A62   A(28,32,33)           111.9964         estimate D2E/DX2                !
 ! A63   A(28,32,34)           109.6691         estimate D2E/DX2                !
 ! A64   A(28,32,35)           109.1554         estimate D2E/DX2                !
 ! A65   A(33,32,34)           109.5495         estimate D2E/DX2                !
 ! A66   A(33,32,35)           110.0831         estimate D2E/DX2                !
 ! A67   A(34,32,35)           106.22           estimate D2E/DX2                !
 ! A68   A(32,33,36)           111.3704         estimate D2E/DX2                !
 ! A69   A(32,33,37)           110.7309         estimate D2E/DX2                !
 ! A70   A(32,33,38)           110.8891         estimate D2E/DX2                !
 ! A71   A(36,33,37)           107.9409         estimate D2E/DX2                !
 ! A72   A(36,33,38)           108.0044         estimate D2E/DX2                !
 ! A73   A(37,33,38)           107.7633         estimate D2E/DX2                !
 ! A74   A(18,39,40)           106.7372         estimate D2E/DX2                !
 ! A75   A(18,39,41)           110.9448         estimate D2E/DX2                !
 ! A76   A(18,39,46)           107.5757         estimate D2E/DX2                !
 ! A77   A(40,39,41)           110.427          estimate D2E/DX2                !
 ! A78   A(40,39,46)           109.9084         estimate D2E/DX2                !
 ! A79   A(41,39,46)           111.1145         estimate D2E/DX2                !
 ! A80   A(39,41,42)           108.4943         estimate D2E/DX2                !
 ! A81   A(39,41,43)           108.0307         estimate D2E/DX2                !
 ! A82   A(39,41,50)           110.9373         estimate D2E/DX2                !
 ! A83   A(42,41,43)           108.5512         estimate D2E/DX2                !
 ! A84   A(42,41,50)           110.5715         estimate D2E/DX2                !
 ! A85   A(43,41,50)           110.1761         estimate D2E/DX2                !
 ! A86   A(41,43,44)           109.359          estimate D2E/DX2                !
 ! A87   A(41,43,45)           108.9795         estimate D2E/DX2                !
 ! A88   A(41,43,47)           110.8705         estimate D2E/DX2                !
 ! A89   A(44,43,45)           108.807          estimate D2E/DX2                !
 ! A90   A(44,43,47)           109.2129         estimate D2E/DX2                !
 ! A91   A(45,43,47)           109.58           estimate D2E/DX2                !
 ! A92   A(43,47,48)           112.3538         estimate D2E/DX2                !
 ! A93   A(43,47,49)           113.0405         estimate D2E/DX2                !
 ! A94   A(43,47,67)           109.2943         estimate D2E/DX2                !
 ! A95   A(48,47,49)           110.423          estimate D2E/DX2                !
 ! A96   A(48,47,67)           105.6385         estimate D2E/DX2                !
 ! A97   A(49,47,67)           105.5921         estimate D2E/DX2                !
 ! A98   A(41,50,61)           121.9381         estimate D2E/DX2                !
 ! A99   A(41,50,62)           124.4659         estimate D2E/DX2                !
 ! A100  A(61,50,62)           113.5946         estimate D2E/DX2                !
 ! A101  A(52,51,53)           119.8243         estimate D2E/DX2                !
 ! A102  A(52,51,61)           109.7975         estimate D2E/DX2                !
 ! A103  A(53,51,61)           130.3781         estimate D2E/DX2                !
 ! A104  A(51,52,54)           122.7748         estimate D2E/DX2                !
 ! A105  A(51,52,62)           105.4784         estimate D2E/DX2                !
 ! A106  A(54,52,62)           131.7468         estimate D2E/DX2                !
 ! A107  A(51,53,55)           117.8621         estimate D2E/DX2                !
 ! A108  A(51,53,56)           120.5028         estimate D2E/DX2                !
 ! A109  A(55,53,56)           121.6348         estimate D2E/DX2                !
 ! A110  A(52,54,57)           116.4766         estimate D2E/DX2                !
 ! A111  A(52,54,58)           121.8957         estimate D2E/DX2                !
 ! A112  A(57,54,58)           121.6276         estimate D2E/DX2                !
 ! A113  A(53,55,57)           121.4974         estimate D2E/DX2                !
 ! A114  A(53,55,59)           119.5124         estimate D2E/DX2                !
 ! A115  A(57,55,59)           118.9902         estimate D2E/DX2                !
 ! A116  A(54,57,55)           121.5635         estimate D2E/DX2                !
 ! A117  A(54,57,60)           119.2589         estimate D2E/DX2                !
 ! A118  A(55,57,60)           119.1776         estimate D2E/DX2                !
 ! A119  A(50,61,51)           104.8967         estimate D2E/DX2                !
 ! A120  A(50,62,52)           106.223          estimate D2E/DX2                !
 ! A121  A(50,62,63)           129.8453         estimate D2E/DX2                !
 ! A122  A(52,62,63)           123.6399         estimate D2E/DX2                !
 ! A123  A(62,63,64)           109.6935         estimate D2E/DX2                !
 ! A124  A(62,63,65)           109.3053         estimate D2E/DX2                !
 ! A125  A(62,63,66)           110.2592         estimate D2E/DX2                !
 ! A126  A(64,63,65)           109.8703         estimate D2E/DX2                !
 ! A127  A(64,63,66)           109.5154         estimate D2E/DX2                !
 ! A128  A(65,63,66)           108.176          estimate D2E/DX2                !
 ! A129  A(47,67,68)           106.669          estimate D2E/DX2                !
 ! A130  A(47,67,69)           106.8752         estimate D2E/DX2                !
 ! A131  A(68,67,69)           119.7127         estimate D2E/DX2                !
 ! D1    D(6,1,2,3)              0.2538         estimate D2E/DX2                !
 ! D2    D(6,1,2,11)          -179.6158         estimate D2E/DX2                !
 ! D3    D(7,1,2,3)           -179.8426         estimate D2E/DX2                !
 ! D4    D(7,1,2,11)             0.2878         estimate D2E/DX2                !
 ! D5    D(2,1,6,5)              0.0783         estimate D2E/DX2                !
 ! D6    D(2,1,6,10)           179.9314         estimate D2E/DX2                !
 ! D7    D(7,1,6,5)           -179.8241         estimate D2E/DX2                !
 ! D8    D(7,1,6,10)             0.029          estimate D2E/DX2                !
 ! D9    D(1,2,3,4)             -0.5736         estimate D2E/DX2                !
 ! D10   D(1,2,3,12)           179.4188         estimate D2E/DX2                !
 ! D11   D(11,2,3,4)           179.3203         estimate D2E/DX2                !
 ! D12   D(11,2,3,12)           -0.6874         estimate D2E/DX2                !
 ! D13   D(1,2,11,17)          179.8934         estimate D2E/DX2                !
 ! D14   D(3,2,11,17)            0.0136         estimate D2E/DX2                !
 ! D15   D(2,3,4,5)              0.5213         estimate D2E/DX2                !
 ! D16   D(2,3,4,8)           -179.1811         estimate D2E/DX2                !
 ! D17   D(12,3,4,5)          -179.4687         estimate D2E/DX2                !
 ! D18   D(12,3,4,8)             0.8289         estimate D2E/DX2                !
 ! D19   D(2,3,12,13)          176.9764         estimate D2E/DX2                !
 ! D20   D(2,3,12,17)            1.0592         estimate D2E/DX2                !
 ! D21   D(4,3,12,13)           -3.0324         estimate D2E/DX2                !
 ! D22   D(4,3,12,17)         -178.9496         estimate D2E/DX2                !
 ! D23   D(3,4,5,6)             -0.1772         estimate D2E/DX2                !
 ! D24   D(3,4,5,9)            179.9874         estimate D2E/DX2                !
 ! D25   D(8,4,5,6)            179.5285         estimate D2E/DX2                !
 ! D26   D(8,4,5,9)             -0.307          estimate D2E/DX2                !
 ! D27   D(4,5,6,1)             -0.1175         estimate D2E/DX2                !
 ! D28   D(4,5,6,10)          -179.9714         estimate D2E/DX2                !
 ! D29   D(9,5,6,1)            179.7179         estimate D2E/DX2                !
 ! D30   D(9,5,6,10)            -0.136          estimate D2E/DX2                !
 ! D31   D(2,11,17,12)           0.701          estimate D2E/DX2                !
 ! D32   D(2,11,17,25)         179.1229         estimate D2E/DX2                !
 ! D33   D(3,12,13,14)         -93.384          estimate D2E/DX2                !
 ! D34   D(3,12,13,15)          26.5871         estimate D2E/DX2                !
 ! D35   D(3,12,13,16)         144.8205         estimate D2E/DX2                !
 ! D36   D(17,12,13,14)         81.575          estimate D2E/DX2                !
 ! D37   D(17,12,13,15)       -158.4538         estimate D2E/DX2                !
 ! D38   D(17,12,13,16)        -40.2204         estimate D2E/DX2                !
 ! D39   D(3,12,17,11)          -1.1486         estimate D2E/DX2                !
 ! D40   D(3,12,17,25)        -179.5241         estimate D2E/DX2                !
 ! D41   D(13,12,17,11)       -176.8086         estimate D2E/DX2                !
 ! D42   D(13,12,17,25)          4.8159         estimate D2E/DX2                !
 ! D43   D(11,17,25,22)       -104.4806         estimate D2E/DX2                !
 ! D44   D(11,17,25,28)        127.5618         estimate D2E/DX2                !
 ! D45   D(11,17,25,29)         10.9158         estimate D2E/DX2                !
 ! D46   D(12,17,25,22)         73.7517         estimate D2E/DX2                !
 ! D47   D(12,17,25,28)        -54.2059         estimate D2E/DX2                !
 ! D48   D(12,17,25,29)       -170.8519         estimate D2E/DX2                !
 ! D49   D(19,18,21,22)       -172.188          estimate D2E/DX2                !
 ! D50   D(19,18,21,23)         62.4776         estimate D2E/DX2                !
 ! D51   D(19,18,21,24)        -51.0556         estimate D2E/DX2                !
 ! D52   D(20,18,21,22)        -42.6795         estimate D2E/DX2                !
 ! D53   D(20,18,21,23)       -168.0138         estimate D2E/DX2                !
 ! D54   D(20,18,21,24)         78.4529         estimate D2E/DX2                !
 ! D55   D(39,18,21,22)         71.9689         estimate D2E/DX2                !
 ! D56   D(39,18,21,23)        -53.3654         estimate D2E/DX2                !
 ! D57   D(39,18,21,24)       -166.8987         estimate D2E/DX2                !
 ! D58   D(19,18,39,40)       -167.5965         estimate D2E/DX2                !
 ! D59   D(19,18,39,41)         72.0494         estimate D2E/DX2                !
 ! D60   D(19,18,39,46)        -49.6759         estimate D2E/DX2                !
 ! D61   D(20,18,39,40)         63.4106         estimate D2E/DX2                !
 ! D62   D(20,18,39,41)        -56.9435         estimate D2E/DX2                !
 ! D63   D(20,18,39,46)       -178.6688         estimate D2E/DX2                !
 ! D64   D(21,18,39,40)        -52.3455         estimate D2E/DX2                !
 ! D65   D(21,18,39,41)       -172.6996         estimate D2E/DX2                !
 ! D66   D(21,18,39,46)         65.5752         estimate D2E/DX2                !
 ! D67   D(18,21,22,25)        173.6274         estimate D2E/DX2                !
 ! D68   D(18,21,22,26)        -63.6978         estimate D2E/DX2                !
 ! D69   D(18,21,22,27)         53.727          estimate D2E/DX2                !
 ! D70   D(23,21,22,25)        -64.7964         estimate D2E/DX2                !
 ! D71   D(23,21,22,26)         57.8784         estimate D2E/DX2                !
 ! D72   D(23,21,22,27)        175.3031         estimate D2E/DX2                !
 ! D73   D(24,21,22,25)         57.1663         estimate D2E/DX2                !
 ! D74   D(24,21,22,26)        179.8411         estimate D2E/DX2                !
 ! D75   D(24,21,22,27)        -62.7341         estimate D2E/DX2                !
 ! D76   D(21,22,25,17)         56.9096         estimate D2E/DX2                !
 ! D77   D(21,22,25,28)       -173.6338         estimate D2E/DX2                !
 ! D78   D(21,22,25,29)        -56.171          estimate D2E/DX2                !
 ! D79   D(26,22,25,17)        -65.9056         estimate D2E/DX2                !
 ! D80   D(26,22,25,28)         63.5511         estimate D2E/DX2                !
 ! D81   D(26,22,25,29)       -178.9862         estimate D2E/DX2                !
 ! D82   D(27,22,25,17)        177.1531         estimate D2E/DX2                !
 ! D83   D(27,22,25,28)        -53.3903         estimate D2E/DX2                !
 ! D84   D(27,22,25,29)         64.0725         estimate D2E/DX2                !
 ! D85   D(17,25,28,30)         76.0554         estimate D2E/DX2                !
 ! D86   D(17,25,28,31)       -168.7326         estimate D2E/DX2                !
 ! D87   D(17,25,28,32)        -47.7448         estimate D2E/DX2                !
 ! D88   D(22,25,28,30)        -52.2127         estimate D2E/DX2                !
 ! D89   D(22,25,28,31)         62.9993         estimate D2E/DX2                !
 ! D90   D(22,25,28,32)       -176.013          estimate D2E/DX2                !
 ! D91   D(29,25,28,30)       -169.5838         estimate D2E/DX2                !
 ! D92   D(29,25,28,31)        -54.3718         estimate D2E/DX2                !
 ! D93   D(29,25,28,32)         66.6159         estimate D2E/DX2                !
 ! D94   D(25,28,32,33)       -176.3967         estimate D2E/DX2                !
 ! D95   D(25,28,32,34)         61.7569         estimate D2E/DX2                !
 ! D96   D(25,28,32,35)        -54.2312         estimate D2E/DX2                !
 ! D97   D(30,28,32,33)         59.2237         estimate D2E/DX2                !
 ! D98   D(30,28,32,34)        -62.6228         estimate D2E/DX2                !
 ! D99   D(30,28,32,35)       -178.6109         estimate D2E/DX2                !
 ! D100  D(31,28,32,33)        -56.5267         estimate D2E/DX2                !
 ! D101  D(31,28,32,34)       -178.3731         estimate D2E/DX2                !
 ! D102  D(31,28,32,35)         65.6388         estimate D2E/DX2                !
 ! D103  D(28,32,33,36)       -179.7108         estimate D2E/DX2                !
 ! D104  D(28,32,33,37)        -59.5931         estimate D2E/DX2                !
 ! D105  D(28,32,33,38)         59.9846         estimate D2E/DX2                !
 ! D106  D(34,32,33,36)        -57.7959         estimate D2E/DX2                !
 ! D107  D(34,32,33,37)         62.3218         estimate D2E/DX2                !
 ! D108  D(34,32,33,38)       -178.1005         estimate D2E/DX2                !
 ! D109  D(35,32,33,36)         58.655          estimate D2E/DX2                !
 ! D110  D(35,32,33,37)        178.7727         estimate D2E/DX2                !
 ! D111  D(35,32,33,38)        -61.6496         estimate D2E/DX2                !
 ! D112  D(18,39,41,42)         51.2741         estimate D2E/DX2                !
 ! D113  D(18,39,41,43)        168.7698         estimate D2E/DX2                !
 ! D114  D(18,39,41,50)        -70.3726         estimate D2E/DX2                !
 ! D115  D(40,39,41,42)        -66.8641         estimate D2E/DX2                !
 ! D116  D(40,39,41,43)         50.6315         estimate D2E/DX2                !
 ! D117  D(40,39,41,50)        171.4891         estimate D2E/DX2                !
 ! D118  D(46,39,41,42)        170.9047         estimate D2E/DX2                !
 ! D119  D(46,39,41,43)        -71.5997         estimate D2E/DX2                !
 ! D120  D(46,39,41,50)         49.2579         estimate D2E/DX2                !
 ! D121  D(39,41,43,44)         59.7578         estimate D2E/DX2                !
 ! D122  D(39,41,43,45)        -59.0704         estimate D2E/DX2                !
 ! D123  D(39,41,43,47)       -179.7611         estimate D2E/DX2                !
 ! D124  D(42,41,43,44)        177.2168         estimate D2E/DX2                !
 ! D125  D(42,41,43,45)         58.3886         estimate D2E/DX2                !
 ! D126  D(42,41,43,47)        -62.3021         estimate D2E/DX2                !
 ! D127  D(50,41,43,44)        -61.5731         estimate D2E/DX2                !
 ! D128  D(50,41,43,45)        179.5987         estimate D2E/DX2                !
 ! D129  D(50,41,43,47)         58.908          estimate D2E/DX2                !
 ! D130  D(39,41,50,61)        -76.2943         estimate D2E/DX2                !
 ! D131  D(39,41,50,62)        104.1571         estimate D2E/DX2                !
 ! D132  D(42,41,50,61)        163.2838         estimate D2E/DX2                !
 ! D133  D(42,41,50,62)        -16.2648         estimate D2E/DX2                !
 ! D134  D(43,41,50,61)         43.2875         estimate D2E/DX2                !
 ! D135  D(43,41,50,62)       -136.2611         estimate D2E/DX2                !
 ! D136  D(41,43,47,48)        -66.3707         estimate D2E/DX2                !
 ! D137  D(41,43,47,49)         59.4257         estimate D2E/DX2                !
 ! D138  D(41,43,47,67)        176.7072         estimate D2E/DX2                !
 ! D139  D(44,43,47,48)         54.1971         estimate D2E/DX2                !
 ! D140  D(44,43,47,49)        179.9935         estimate D2E/DX2                !
 ! D141  D(44,43,47,67)        -62.725          estimate D2E/DX2                !
 ! D142  D(45,43,47,48)        173.295          estimate D2E/DX2                !
 ! D143  D(45,43,47,49)        -60.9085         estimate D2E/DX2                !
 ! D144  D(45,43,47,67)         56.3729         estimate D2E/DX2                !
 ! D145  D(43,47,67,68)         63.2007         estimate D2E/DX2                !
 ! D146  D(43,47,67,69)        -65.9606         estimate D2E/DX2                !
 ! D147  D(48,47,67,68)        -57.8935         estimate D2E/DX2                !
 ! D148  D(48,47,67,69)        172.9452         estimate D2E/DX2                !
 ! D149  D(49,47,67,68)       -174.9149         estimate D2E/DX2                !
 ! D150  D(49,47,67,69)         55.9239         estimate D2E/DX2                !
 ! D151  D(41,50,61,51)        179.55           estimate D2E/DX2                !
 ! D152  D(62,50,61,51)         -0.8562         estimate D2E/DX2                !
 ! D153  D(41,50,62,52)       -179.3449         estimate D2E/DX2                !
 ! D154  D(41,50,62,63)         -5.4877         estimate D2E/DX2                !
 ! D155  D(61,50,62,52)          1.0732         estimate D2E/DX2                !
 ! D156  D(61,50,62,63)        174.9304         estimate D2E/DX2                !
 ! D157  D(53,51,52,54)          0.4521         estimate D2E/DX2                !
 ! D158  D(53,51,52,62)       -179.5644         estimate D2E/DX2                !
 ! D159  D(61,51,52,54)       -179.6684         estimate D2E/DX2                !
 ! D160  D(61,51,52,62)          0.3152         estimate D2E/DX2                !
 ! D161  D(52,51,53,55)         -0.346          estimate D2E/DX2                !
 ! D162  D(52,51,53,56)        179.8344         estimate D2E/DX2                !
 ! D163  D(61,51,53,55)        179.8028         estimate D2E/DX2                !
 ! D164  D(61,51,53,56)         -0.0168         estimate D2E/DX2                !
 ! D165  D(52,51,61,50)          0.3089         estimate D2E/DX2                !
 ! D166  D(53,51,61,50)       -179.8283         estimate D2E/DX2                !
 ! D167  D(51,52,54,57)         -0.2539         estimate D2E/DX2                !
 ! D168  D(51,52,54,58)        179.6846         estimate D2E/DX2                !
 ! D169  D(62,52,54,57)        179.7673         estimate D2E/DX2                !
 ! D170  D(62,52,54,58)         -0.2942         estimate D2E/DX2                !
 ! D171  D(51,52,62,50)         -0.7894         estimate D2E/DX2                !
 ! D172  D(51,52,62,63)       -175.1261         estimate D2E/DX2                !
 ! D173  D(54,52,62,50)        179.1921         estimate D2E/DX2                !
 ! D174  D(54,52,62,63)          4.8554         estimate D2E/DX2                !
 ! D175  D(51,53,55,57)          0.0743         estimate D2E/DX2                !
 ! D176  D(51,53,55,59)       -179.8385         estimate D2E/DX2                !
 ! D177  D(56,53,55,57)        179.8918         estimate D2E/DX2                !
 ! D178  D(56,53,55,59)         -0.0211         estimate D2E/DX2                !
 ! D179  D(52,54,57,55)         -0.0298         estimate D2E/DX2                !
 ! D180  D(52,54,57,60)        179.937          estimate D2E/DX2                !
 ! D181  D(58,54,57,55)       -179.9684         estimate D2E/DX2                !
 ! D182  D(58,54,57,60)         -0.0016         estimate D2E/DX2                !
 ! D183  D(53,55,57,54)          0.118          estimate D2E/DX2                !
 ! D184  D(53,55,57,60)       -179.8488         estimate D2E/DX2                !
 ! D185  D(59,55,57,54)       -179.9687         estimate D2E/DX2                !
 ! D186  D(59,55,57,60)          0.0645         estimate D2E/DX2                !
 ! D187  D(50,62,63,64)        125.4195         estimate D2E/DX2                !
 ! D188  D(50,62,63,65)       -114.0567         estimate D2E/DX2                !
 ! D189  D(50,62,63,66)          4.7342         estimate D2E/DX2                !
 ! D190  D(52,62,63,64)        -61.6697         estimate D2E/DX2                !
 ! D191  D(52,62,63,65)         58.8542         estimate D2E/DX2                !
 ! D192  D(52,62,63,66)        177.6451         estimate D2E/DX2                !
 --------------------------------------------------------------------------------
 Trust Radius=3.00D-01 FncErr=1.00D-07 GrdErr=1.00D-06 EigMax=2.50D+02 EigMin=1.00D-04
 Number of steps in this run=    405 maximum allowed number of steps=    414.
 GradGradGradGradGradGradGradGradGradGradGradGradGradGradGradGradGradGrad

 Stoichiometry    C26H33N4O4S2(2)
 Framework group  C1[X(C26H33N4O4S2)]
 Deg. of freedom   201
 Full point group                 C1      NOp   1
 Largest Abelian subgroup         C1      NOp   1
 Largest concise Abelian subgroup C1      NOp   1
                         Standard orientation:                         
 ---------------------------------------------------------------------
 Center     Atomic      Atomic             Coordinates (Angstroms)
 Number     Number       Type             X           Y           Z
 ---------------------------------------------------------------------
      1          6           0       -5.195285   -2.804707    2.022610
      2          6           0       -4.815002   -1.708064    1.239840
      3          6           0       -4.707456   -0.431271    1.822829
      4          6           0       -4.979075   -0.198086    3.172954
      5          6           0       -5.355133   -1.298077    3.931144
      6          6           0       -5.461009   -2.584178    3.365515
      7          1           0       -5.277826   -3.792572    1.580515
      8          1           0       -4.907304    0.790427    3.614843
      9          1           0       -5.575539   -1.163153    4.985247
     10          1           0       -5.759044   -3.415218    3.996747
     11          7           0       -4.502836   -1.639851   -0.106215
     12          7           0       -4.307247    0.404717    0.797163
     13          6           0       -4.130344    1.840953    0.932048
     14          1           0       -5.039497    2.379893    0.648807
     15          1           0       -3.893195    2.063037    1.973130
     16          1           0       -3.299054    2.183198    0.316784
     17          6           0       -4.217660   -0.377056   -0.331869
     18         16           0        0.288502   -0.629645   -1.649985
     19          8           0        0.926634   -1.937295   -1.452436
     20          8           0        0.514074    0.070702   -2.923468
     21          6           0       -1.476374   -0.836673   -1.406659
     22          6           0       -2.289698    0.401807   -1.765188
     23          1           0       -1.610409   -1.157159   -0.368746
     24          1           0       -1.725712   -1.684395   -2.054840
     25          6           0       -3.802391    0.121825   -1.689939
     26          1           0       -2.027068    1.235288   -1.104085
     27          1           0       -2.042556    0.710930   -2.785602
     28          6           0       -4.621148    1.318111   -2.201453
     29          1           0       -4.011054   -0.727514   -2.351213
     30          1           0       -4.315871    2.242314   -1.695890
     31          1           0       -4.371386    1.458025   -3.260576
     32          6           0       -6.130268    1.127206   -2.057220
     33          6           0       -6.913611    2.293223   -2.654078
     34          1           0       -6.388944    1.015737   -0.995893
     35          1           0       -6.422622    0.188267   -2.544231
     36          1           0       -7.991494    2.148588   -2.540842
     37          1           0       -6.645640    3.233525   -2.160298
     38          1           0       -6.697213    2.403098   -3.721757
     39          6           0        0.816465    0.474861   -0.332495
     40          1           0        0.163261    1.351128   -0.375362
     41          6           0        2.284139    0.890329   -0.519078
     42          1           0        2.412616    1.261952   -1.540564
     43          6           0        2.582262    2.038465    0.460589
     44          1           0        2.409690    1.695389    1.484387
     45          1           0        1.905459    2.871508    0.248985
     46          1           0        0.673238   -0.050321    0.615953
     47          6           0        4.028042    2.507123    0.325040
     48          1           0        4.743114    1.744314    0.639816
     49          1           0        4.269250    2.864739   -0.678572
     50          6           0        3.209395   -0.269454   -0.257414
     51          6           0        4.341844   -1.749394    0.790339
     52          6           0        4.578483   -1.958144   -0.581722
     53          6           0        4.956093   -2.578431    1.737010
     54          6           0        5.405185   -2.977155   -1.059866
     55          6           0        5.780370   -3.592314    1.272852
     56          1           0        4.783530   -2.425697    2.797596
     57          6           0        6.000725   -3.789517   -0.105674
     58          1           0        5.573692   -3.128343   -2.121364
     59          1           0        6.267957   -4.252351    1.983206
     60          1           0        6.651309   -4.596412   -0.427381
     61          7           0        3.481998   -0.679713    0.959895
     62          7           0        3.848133   -0.986409   -1.233202
     63          6           0        3.728204   -0.903430   -2.678147
     64          1           0        4.714489   -0.746368   -3.121019
     65          1           0        3.293719   -1.831245   -3.058495
     66          1           0        3.070205   -0.081817   -2.955164
     67         16           0        4.307460    3.932139    1.434644
     68          8           0        4.108041    3.440746    2.814179
     69          8           0        3.475458    5.042395    0.924983
 ---------------------------------------------------------------------
 Rotational constants (GHZ):           0.1196406           0.0466287           0.0433905
 Standard basis: 6-31G(d) (6D, 7F)
 There are   614 symmetry adapted cartesian basis functions of A   symmetry.
 There are   614 symmetry adapted basis functions of A   symmetry.
   614 basis functions,  1188 primitive gaussians,   614 cartesian basis functions
   141 alpha electrons      140 beta electrons
       nuclear repulsion energy      4295.5602281300 Hartrees.
 NAtoms=   69 NActive=   69 NUniq=   69 SFac= 1.00D+00 NAtFMM=   60 NAOKFM=T Big=T
 Integral buffers will be    131072 words long.
 Raffenetti 2 integral format.
 Two-electron integral symmetry is turned on.
 One-electron integrals computed using PRISM.
 NBasis=   614 RedAO= T EigKep=  3.77D-04  NBF=   614
 NBsUse=   614 1.00D-06 EigRej= -1.00D+00 NBFU=   614
 ExpMin= 1.17D-01 ExpMax= 2.19D+04 ExpMxC= 3.30D+03 IAcc=3 IRadAn=         5 AccDes= 0.00D+00
 Harris functional with IExCor= 1009 and IRadAn=       5 diagonalized for initial guess.
 HarFok:  IExCor= 1009 AccDes= 0.00D+00 IRadAn=         5 IDoV= 1 UseB2=F ITyADJ=14
 ICtDFT=  3500011 ScaDFX=  1.000000  1.000000  1.000000  1.000000
 FoFCou: FMM=F IPFlag=           0 FMFlag=      100000 FMFlg1=        2001
         NFxFlg=           0 DoJE=T BraDBF=F KetDBF=T FulRan=T
         wScrn=  0.000000 ICntrl=       500 IOpCl=  0 I1Cent=   200000004 NGrid=           0
         NMat0=    1 NMatS0=      1 NMatT0=    0 NMatD0=    1 NMtDS0=    0 NMtDT0=    0
 Petite list used in FoFCou.
 Initial guess <Sx>= 0.0000 <Sy>= 0.0000 <Sz>= 0.5000 <S**2>= 0.7500 S= 0.5000
 Requested convergence on RMS density matrix=1.00D-08 within 128 cycles.
 Requested convergence on MAX density matrix=1.00D-06.
 Requested convergence on             energy=1.00D-06.
 No special actions if energy rises.
 Integral accuracy reduced to 1.0D-05 until final iterations.
 Initial convergence to 1.0D-05 achieved.  Increase integral accuracy.
 SCF Done:  E(UM062X) =  -2326.10945450     A.U. after   20 cycles
            NFock= 20  Conv=0.30D-08     -V/T= 2.0067
 <Sx>= 0.0000 <Sy>= 0.0000 <Sz>= 0.5000 <S**2>= 0.7570 S= 0.5035
 <L.S>=  0.00000000000    
 Annihilation of the first spin contaminant:
 S**2 before annihilation     0.7570,   after     0.7500

 **********************************************************************

            Population analysis using the SCF Density.

 **********************************************************************

 Orbital symmetries:
 Alpha Orbitals:
       Occupied  (A) (A) (A) (A) (A) (A) (A) (A) (A) (A) (A) (A)
                 (A) (A) (A) (A) (A) (A) (A) (A) (A) (A) (A) (A)
                 (A) (A) (A) (A) (A) (A) (A) (A) (A) (A) (A) (A)
                 (A) (A) (A) (A) (A) (A) (A) (A) (A) (A) (A) (A)
                 (A) (A) (A) (A) (A) (A) (A) (A) (A) (A) (A) (A)
                 (A) (A) (A) (A) (A) (A) (A) (A) (A) (A) (A) (A)
                 (A) (A) (A) (A) (A) (A) (A) (A) (A) (A) (A) (A)
                 (A) (A) (A) (A) (A) (A) (A) (A) (A) (A) (A) (A)
                 (A) (A) (A) (A) (A) (A) (A) (A) (A) (A) (A) (A)
                 (A) (A) (A) (A) (A) (A) (A) (A) (A) (A) (A) (A)
                 (A) (A) (A) (A) (A) (A) (A) (A) (A) (A) (A) (A)
                 (A) (A) (A) (A) (A) (A) (A) (A) (A)
       Virtual   (A) (A) (A) (A) (A) (A) (A) (A) (A) (A) (A) (A)
                 (A) (A) (A) (A) (A) (A) (A) (A) (A) (A) (A) (A)
                 (A) (A) (A) (A) (A) (A) (A) (A) (A) (A) (A) (A)
                 (A) (A) (A) (A) (A) (A) (A) (A) (A) (A) (A) (A)
                 (A) (A) (A) (A) (A) (A) (A) (A) (A) (A) (A) (A)
                 (A) (A) (A) (A) (A) (A) (A) (A) (A) (A) (A) (A)
                 (A) (A) (A) (A) (A) (A) (A) (A) (A) (A) (A) (A)
                 (A) (A) (A) (A) (A) (A) (A) (A) (A) (A) (A) (A)
                 (A) (A) (A) (A) (A) (A) (A) (A) (A) (A) (A) (A)
                 (A) (A) (A) (A) (A) (A) (A) (A) (A) (A) (A) (A)
                 (A) (A) (A) (A) (A) (A) (A) (A) (A) (A) (A) (A)
                 (A) (A) (A) (A) (A) (A) (A) (A) (A) (A) (A) (A)
                 (A) (A) (A) (A) (A) (A) (A) (A) (A) (A) (A) (A)
                 (A) (A) (A) (A) (A) (A) (A) (A) (A) (A) (A) (A)
                 (A) (A) (A) (A) (A) (A) (A) (A) (A) (A) (A) (A)
                 (A) (A) (A) (A) (A) (A) (A) (A) (A) (A) (A) (A)
                 (A) (A) (A) (A) (A) (A) (A) (A) (A) (A) (A) (A)
                 (A) (A) (A) (A) (A) (A) (A) (A) (A) (A) (A) (A)
                 (A) (A) (A) (A) (A) (A) (A) (A) (A) (A) (A) (A)
                 (A) (A) (A) (A) (A) (A) (A) (A) (A) (A) (A) (A)
                 (A) (A) (A) (A) (A) (A) (A) (A) (A) (A) (A) (A)
                 (A) (A) (A) (A) (A) (A) (A) (A) (A) (A) (A) (A)
                 (A) (A) (A) (A) (A) (A) (A) (A) (A) (A) (A) (A)
                 (A) (A) (A) (A) (A) (A) (A) (A) (A) (A) (A) (A)
                 (A) (A) (A) (A) (A) (A) (A) (A) (A) (A) (A) (A)
                 (A) (A) (A) (A) (A) (A) (A) (A) (A) (A) (A) (A)
                 (A) (A) (A) (A) (A) (A) (A) (A) (A) (A) (A) (A)
                 (A) (A) (A) (A) (A) (A) (A) (A) (A) (A) (A) (A)
                 (A) (A) (A) (A) (A) (A) (A) (A) (A) (A) (A) (A)
                 (A) (A) (A) (A) (A) (A) (A) (A) (A) (A) (A) (A)
                 (A) (A) (A) (A) (A) (A) (A) (A) (A) (A) (A) (A)
                 (A) (A) (A) (A) (A) (A) (A) (A) (A) (A) (A) (A)
                 (A) (A) (A) (A) (A) (A) (A) (A) (A) (A) (A) (A)
                 (A) (A) (A) (A) (A) (A) (A) (A) (A) (A) (A) (A)
                 (A) (A) (A) (A) (A) (A) (A) (A) (A) (A) (A) (A)
                 (A) (A) (A) (A) (A) (A) (A) (A) (A) (A) (A) (A)
                 (A) (A) (A) (A) (A) (A) (A) (A) (A) (A) (A) (A)
                 (A) (A) (A) (A) (A) (A) (A) (A) (A) (A) (A) (A)
                 (A) (A) (A) (A) (A) (A) (A) (A) (A) (A) (A) (A)
                 (A) (A) (A) (A) (A)
 Beta  Orbitals:
       Occupied  (A) (A) (A) (A) (A) (A) (A) (A) (A) (A) (A) (A)
                 (A) (A) (A) (A) (A) (A) (A) (A) (A) (A) (A) (A)
                 (A) (A) (A) (A) (A) (A) (A) (A) (A) (A) (A) (A)
                 (A) (A) (A) (A) (A) (A) (A) (A) (A) (A) (A) (A)
                 (A) (A) (A) (A) (A) (A) (A) (A) (A) (A) (A) (A)
                 (A) (A) (A) (A) (A) (A) (A) (A) (A) (A) (A) (A)
                 (A) (A) (A) (A) (A) (A) (A) (A) (A) (A) (A) (A)
                 (A) (A) (A) (A) (A) (A) (A) (A) (A) (A) (A) (A)
                 (A) (A) (A) (A) (A) (A) (A) (A) (A) (A) (A) (A)
                 (A) (A) (A) (A) (A) (A) (A) (A) (A) (A) (A) (A)
                 (A) (A) (A) (A) (A) (A) (A) (A) (A) (A) (A) (A)
                 (A) (A) (A) (A) (A) (A) (A) (A)
       Virtual   (A) (A) (A) (A) (A) (A) (A) (A) (A) (A) (A) (A)
                 (A) (A) (A) (A) (A) (A) (A) (A) (A) (A) (A) (A)
                 (A) (A) (A) (A) (A) (A) (A) (A) (A) (A) (A) (A)
                 (A) (A) (A) (A) (A) (A) (A) (A) (A) (A) (A) (A)
                 (A) (A) (A) (A) (A) (A) (A) (A) (A) (A) (A) (A)
                 (A) (A) (A) (A) (A) (A) (A) (A) (A) (A) (A) (A)
                 (A) (A) (A) (A) (A) (A) (A) (A) (A) (A) (A) (A)
                 (A) (A) (A) (A) (A) (A) (A) (A) (A) (A) (A) (A)
                 (A) (A) (A) (A) (A) (A) (A) (A) (A) (A) (A) (A)
                 (A) (A) (A) (A) (A) (A) (A) (A) (A) (A) (A) (A)
                 (A) (A) (A) (A) (A) (A) (A) (A) (A) (A) (A) (A)
                 (A) (A) (A) (A) (A) (A) (A) (A) (A) (A) (A) (A)
                 (A) (A) (A) (A) (A) (A) (A) (A) (A) (A) (A) (A)
                 (A) (A) (A) (A) (A) (A) (A) (A) (A) (A) (A) (A)
                 (A) (A) (A) (A) (A) (A) (A) (A) (A) (A) (A) (A)
                 (A) (A) (A) (A) (A) (A) (A) (A) (A) (A) (A) (A)
                 (A) (A) (A) (A) (A) (A) (A) (A) (A) (A) (A) (A)
                 (A) (A) (A) (A) (A) (A) (A) (A) (A) (A) (A) (A)
                 (A) (A) (A) (A) (A) (A) (A) (A) (A) (A) (A) (A)
                 (A) (A) (A) (A) (A) (A) (A) (A) (A) (A) (A) (A)
                 (A) (A) (A) (A) (A) (A) (A) (A) (A) (A) (A) (A)
                 (A) (A) (A) (A) (A) (A) (A) (A) (A) (A) (A) (A)
                 (A) (A) (A) (A) (A) (A) (A) (A) (A) (A) (A) (A)
                 (A) (A) (A) (A) (A) (A) (A) (A) (A) (A) (A) (A)
                 (A) (A) (A) (A) (A) (A) (A) (A) (A) (A) (A) (A)
                 (A) (A) (A) (A) (A) (A) (A) (A) (A) (A) (A) (A)
                 (A) (A) (A) (A) (A) (A) (A) (A) (A) (A) (A) (A)
                 (A) (A) (A) (A) (A) (A) (A) (A) (A) (A) (A) (A)
                 (A) (A) (A) (A) (A) (A) (A) (A) (A) (A) (A) (A)
                 (A) (A) (A) (A) (A) (A) (A) (A) (A) (A) (A) (A)
                 (A) (A) (A) (A) (A) (A) (A) (A) (A) (A) (A) (A)
                 (A) (A) (A) (A) (A) (A) (A) (A) (A) (A) (A) (A)
                 (A) (A) (A) (A) (A) (A) (A) (A) (A) (A) (A) (A)
                 (A) (A) (A) (A) (A) (A) (A) (A) (A) (A) (A) (A)
                 (A) (A) (A) (A) (A) (A) (A) (A) (A) (A) (A) (A)
                 (A) (A) (A) (A) (A) (A) (A) (A) (A) (A) (A) (A)
                 (A) (A) (A) (A) (A) (A) (A) (A) (A) (A) (A) (A)
                 (A) (A) (A) (A) (A) (A) (A) (A) (A) (A) (A) (A)
                 (A) (A) (A) (A) (A) (A) (A) (A) (A) (A) (A) (A)
                 (A) (A) (A) (A) (A) (A)
 The electronic state is 2-A.
 Alpha  occ. eigenvalues --  -90.14297 -90.10850 -19.66289 -19.66242 -19.64006
 Alpha  occ. eigenvalues --  -19.63596 -14.82848 -14.81942 -14.74614 -14.74219
 Alpha  occ. eigenvalues --  -10.62418 -10.62285 -10.61334 -10.60992 -10.60644
 Alpha  occ. eigenvalues --  -10.60273 -10.59940 -10.59072 -10.58749 -10.58431
 Alpha  occ. eigenvalues --  -10.58425 -10.58259 -10.57761 -10.56976 -10.56450
 Alpha  occ. eigenvalues --  -10.56418 -10.56040 -10.55494 -10.55315 -10.55237
 Alpha  occ. eigenvalues --  -10.55021 -10.54749 -10.54615 -10.54471 -10.54399
 Alpha  occ. eigenvalues --  -10.54154  -8.45835  -8.43172  -6.37973  -6.37920
 Alpha  occ. eigenvalues --   -6.37900  -6.35353  -6.35154  -6.35049  -1.22991
 Alpha  occ. eigenvalues --   -1.22791  -1.14271  -1.13697  -1.13442  -1.11762
 Alpha  occ. eigenvalues --   -1.00534  -0.99977  -0.96865  -0.96313  -0.94153
 Alpha  occ. eigenvalues --   -0.93678  -0.91364  -0.89853  -0.86581  -0.85282
 Alpha  occ. eigenvalues --   -0.84407  -0.83512  -0.82648  -0.81740  -0.81152
 Alpha  occ. eigenvalues --   -0.80522  -0.77455  -0.74666  -0.73598  -0.70489
 Alpha  occ. eigenvalues --   -0.69721  -0.69091  -0.68467  -0.67871  -0.67290
 Alpha  occ. eigenvalues --   -0.67035  -0.65320  -0.64541  -0.61026  -0.60192
 Alpha  occ. eigenvalues --   -0.59818  -0.59020  -0.58337  -0.58127  -0.57404
 Alpha  occ. eigenvalues --   -0.57262  -0.57049  -0.56732  -0.56091  -0.55473
 Alpha  occ. eigenvalues --   -0.55147  -0.54265  -0.53932  -0.53241  -0.52420
 Alpha  occ. eigenvalues --   -0.52058  -0.51416  -0.51122  -0.50823  -0.50388
 Alpha  occ. eigenvalues --   -0.50194  -0.49888  -0.49630  -0.49218  -0.48951
 Alpha  occ. eigenvalues --   -0.48151  -0.48041  -0.47676  -0.47590  -0.46728
 Alpha  occ. eigenvalues --   -0.46397  -0.44968  -0.44789  -0.44084  -0.43322
 Alpha  occ. eigenvalues --   -0.42700  -0.42606  -0.42276  -0.41809  -0.41589
 Alpha  occ. eigenvalues --   -0.41320  -0.41100  -0.40702  -0.40334  -0.40137
 Alpha  occ. eigenvalues --   -0.40042  -0.39948  -0.39310  -0.39172  -0.39055
 Alpha  occ. eigenvalues --   -0.37192  -0.36296  -0.35378  -0.35350  -0.34219
 Alpha  occ. eigenvalues --   -0.34032  -0.30713  -0.27948  -0.27530  -0.27239
 Alpha  occ. eigenvalues --   -0.26863
 Alpha virt. eigenvalues --    0.01317   0.01714   0.05401   0.06109   0.07334
 Alpha virt. eigenvalues --    0.07994   0.08596   0.08904   0.09655   0.10907
 Alpha virt. eigenvalues --    0.11180   0.11539   0.11930   0.12323   0.12654
 Alpha virt. eigenvalues --    0.12796   0.13598   0.13776   0.14049   0.14107
 Alpha virt. eigenvalues --    0.15039   0.15285   0.15516   0.16337   0.16663
 Alpha virt. eigenvalues --    0.16930   0.17324   0.17847   0.18489   0.19127
 Alpha virt. eigenvalues --    0.19531   0.19830   0.20094   0.20270   0.20671
 Alpha virt. eigenvalues --    0.20873   0.21132   0.21388   0.21860   0.22202
 Alpha virt. eigenvalues --    0.22336   0.22551   0.22796   0.23152   0.23457
 Alpha virt. eigenvalues --    0.23589   0.23944   0.24005   0.24522   0.24773
 Alpha virt. eigenvalues --    0.25160   0.25645   0.26294   0.26583   0.27493
 Alpha virt. eigenvalues --    0.27869   0.28973   0.29514   0.30584   0.31076
 Alpha virt. eigenvalues --    0.31435   0.31625   0.32665   0.32772   0.33080
 Alpha virt. eigenvalues --    0.33663   0.34233   0.37329   0.37504   0.38353
 Alpha virt. eigenvalues --    0.38638   0.39128   0.39495   0.40819   0.41226
 Alpha virt. eigenvalues --    0.41828   0.42909   0.43981   0.45252   0.47091
 Alpha virt. eigenvalues --    0.47182   0.47875   0.48706   0.50362   0.50579
 Alpha virt. eigenvalues --    0.51382   0.51980   0.52548   0.52953   0.53435
 Alpha virt. eigenvalues --    0.54710   0.55160   0.55564   0.56658   0.57161
 Alpha virt. eigenvalues --    0.57265   0.58007   0.58184   0.58536   0.58923
 Alpha virt. eigenvalues --    0.59038   0.59277   0.60187   0.60612   0.61041
 Alpha virt. eigenvalues --    0.61459   0.62133   0.63297   0.63947   0.64226
 Alpha virt. eigenvalues --    0.64721   0.65079   0.65506   0.65586   0.65884
 Alpha virt. eigenvalues --    0.66025   0.66258   0.66555   0.66785   0.66930
 Alpha virt. eigenvalues --    0.66935   0.67825   0.68117   0.68708   0.69643
 Alpha virt. eigenvalues --    0.70602   0.71046   0.71331   0.71926   0.72367
 Alpha virt. eigenvalues --    0.72973   0.73186   0.73470   0.74323   0.74806
 Alpha virt. eigenvalues --    0.75134   0.76552   0.76584   0.77460   0.78419
 Alpha virt. eigenvalues --    0.79200   0.79366   0.80579   0.81727   0.82760
 Alpha virt. eigenvalues --    0.83202   0.83906   0.84210   0.84456   0.85049
 Alpha virt. eigenvalues --    0.85440   0.85671   0.86103   0.86384   0.87057
 Alpha virt. eigenvalues --    0.87323   0.87617   0.88168   0.88305   0.89142
 Alpha virt. eigenvalues --    0.89560   0.90015   0.90315   0.90785   0.90986
 Alpha virt. eigenvalues --    0.91101   0.91519   0.91710   0.92155   0.92233
 Alpha virt. eigenvalues --    0.92668   0.93070   0.93382   0.93815   0.94370
 Alpha virt. eigenvalues --    0.94428   0.94844   0.95668   0.95981   0.96117
 Alpha virt. eigenvalues --    0.96177   0.96823   0.96851   0.97339   0.98095
 Alpha virt. eigenvalues --    0.98368   0.98848   0.99419   0.99484   1.00264
 Alpha virt. eigenvalues --    1.00941   1.01089   1.01373   1.01744   1.02062
 Alpha virt. eigenvalues --    1.02266   1.02827   1.03017   1.03762   1.04256
 Alpha virt. eigenvalues --    1.04671   1.05124   1.05626   1.06209   1.06502
 Alpha virt. eigenvalues --    1.06672   1.07519   1.07845   1.08455   1.08848
 Alpha virt. eigenvalues --    1.09202   1.09559   1.10018   1.10795   1.11817
 Alpha virt. eigenvalues --    1.12098   1.12843   1.14111   1.14297   1.14957
 Alpha virt. eigenvalues --    1.16108   1.18196   1.18464   1.19164   1.19653
 Alpha virt. eigenvalues --    1.20018   1.21159   1.22463   1.22954   1.23136
 Alpha virt. eigenvalues --    1.23731   1.24713   1.25216   1.26637   1.29279
 Alpha virt. eigenvalues --    1.29293   1.30099   1.30156   1.31253   1.32687
 Alpha virt. eigenvalues --    1.33905   1.34738   1.36037   1.36614   1.37700
 Alpha virt. eigenvalues --    1.38228   1.38342   1.38831   1.40607   1.41627
 Alpha virt. eigenvalues --    1.42463   1.42924   1.45037   1.45447   1.45990
 Alpha virt. eigenvalues --    1.46664   1.47271   1.47891   1.48714   1.49157
 Alpha virt. eigenvalues --    1.51004   1.51497   1.53058   1.53591   1.54007
 Alpha virt. eigenvalues --    1.54685   1.54911   1.55539   1.56550   1.56717
 Alpha virt. eigenvalues --    1.58239   1.58402   1.62476   1.63708   1.64881
 Alpha virt. eigenvalues --    1.65715   1.66674   1.67160   1.67997   1.69223
 Alpha virt. eigenvalues --    1.70037   1.71154   1.73753   1.75415   1.76819
 Alpha virt. eigenvalues --    1.77764   1.79744   1.81112   1.83110   1.83624
 Alpha virt. eigenvalues --    1.84474   1.84705   1.85008   1.85137   1.85418
 Alpha virt. eigenvalues --    1.86025   1.86462   1.86706   1.87356   1.87843
 Alpha virt. eigenvalues --    1.87934   1.88157   1.88378   1.89173   1.89465
 Alpha virt. eigenvalues --    1.89862   1.90655   1.91559   1.92332   1.93145
 Alpha virt. eigenvalues --    1.93199   1.94112   1.94813   1.95210   1.95748
 Alpha virt. eigenvalues --    1.96760   1.97589   1.98266   1.98753   1.99763
 Alpha virt. eigenvalues --    2.00172   2.00515   2.01154   2.01498   2.01602
 Alpha virt. eigenvalues --    2.02171   2.02361   2.02800   2.02912   2.03835
 Alpha virt. eigenvalues --    2.04322   2.04688   2.05267   2.06039   2.06393
 Alpha virt. eigenvalues --    2.06906   2.07455   2.08347   2.08685   2.10035
 Alpha virt. eigenvalues --    2.10942   2.12406   2.12816   2.13823   2.14641
 Alpha virt. eigenvalues --    2.15040   2.15310   2.17112   2.17419   2.19138
 Alpha virt. eigenvalues --    2.19788   2.20739   2.21624   2.21676   2.22635
 Alpha virt. eigenvalues --    2.23322   2.24257   2.25775   2.26260   2.26760
 Alpha virt. eigenvalues --    2.27467   2.27784   2.28212   2.29036   2.29536
 Alpha virt. eigenvalues --    2.29813   2.29841   2.31235   2.31648   2.31740
 Alpha virt. eigenvalues --    2.32338   2.32557   2.34017   2.34639   2.35856
 Alpha virt. eigenvalues --    2.36507   2.38184   2.38524   2.39778   2.40725
 Alpha virt. eigenvalues --    2.42345   2.42676   2.44442   2.44554   2.45762
 Alpha virt. eigenvalues --    2.46416   2.47284   2.48751   2.49361   2.49813
 Alpha virt. eigenvalues --    2.50141   2.54231   2.56001   2.56700   2.58078
 Alpha virt. eigenvalues --    2.58966   2.61597   2.63020   2.64104   2.64402
 Alpha virt. eigenvalues --    2.65465   2.65895   2.66574   2.67152   2.68635
 Alpha virt. eigenvalues --    2.69209   2.70881   2.71414   2.71825   2.72923
 Alpha virt. eigenvalues --    2.73778   2.76134   2.76547   2.76759   2.78806
 Alpha virt. eigenvalues --    2.79264   2.80311   2.81920   2.82860   2.83305
 Alpha virt. eigenvalues --    2.85060   2.85767   2.87301   2.87737   2.89278
 Alpha virt. eigenvalues --    2.91787   2.93352   2.95390   2.98444   3.09906
 Alpha virt. eigenvalues --    3.10276   3.21922   3.22416   3.25592   3.26570
 Alpha virt. eigenvalues --    3.47638   3.48450   3.69767   3.89342   3.96612
 Alpha virt. eigenvalues --    3.97337   3.97761   4.07698   4.08801   4.10474
 Alpha virt. eigenvalues --    4.11575   4.12281   4.15981   4.16689   4.17426
 Alpha virt. eigenvalues --    4.20340   4.22214   4.23114   4.24848   4.29213
 Alpha virt. eigenvalues --    4.31465   4.34919   4.35356   4.36677   4.39362
 Alpha virt. eigenvalues --    4.40821   4.42673   4.43249   4.44595   4.47247
 Alpha virt. eigenvalues --    4.49750   4.51842   4.53528   4.56956   4.67274
 Alpha virt. eigenvalues --    4.69942   4.80902   4.81861
  Beta  occ. eigenvalues --  -90.14296 -90.10541 -19.65667 -19.65645 -19.64006
  Beta  occ. eigenvalues --  -19.63595 -14.82848 -14.81942 -14.74614 -14.74219
  Beta  occ. eigenvalues --  -10.62418 -10.62285 -10.61334 -10.60824 -10.60639
  Beta  occ. eigenvalues --  -10.60262 -10.59940 -10.59072 -10.58749 -10.58425
  Beta  occ. eigenvalues --  -10.58419 -10.58259 -10.57761 -10.56976 -10.56450
  Beta  occ. eigenvalues --  -10.56418 -10.56040 -10.55494 -10.55315 -10.55237
  Beta  occ. eigenvalues --  -10.55021 -10.54749 -10.54615 -10.54471 -10.54399
  Beta  occ. eigenvalues --  -10.54154  -8.45834  -8.42980  -6.37972  -6.37917
  Beta  occ. eigenvalues --   -6.37900  -6.35088  -6.34998  -6.34506  -1.22790
  Beta  occ. eigenvalues --   -1.21311  -1.14271  -1.13697  -1.11762  -1.11404
  Beta  occ. eigenvalues --   -1.00534  -0.99970  -0.96773  -0.96300  -0.94153
  Beta  occ. eigenvalues --   -0.93621  -0.91223  -0.89479  -0.86509  -0.85270
  Beta  occ. eigenvalues --   -0.84404  -0.83438  -0.82647  -0.81715  -0.81083
  Beta  occ. eigenvalues --   -0.80163  -0.77264  -0.74273  -0.73594  -0.69866
  Beta  occ. eigenvalues --   -0.69679  -0.68651  -0.68399  -0.67371  -0.67290
  Beta  occ. eigenvalues --   -0.66839  -0.65320  -0.64515  -0.60966  -0.60126
  Beta  occ. eigenvalues --   -0.59786  -0.58549  -0.58319  -0.58001  -0.57353
  Beta  occ. eigenvalues --   -0.56835  -0.56646  -0.56096  -0.55943  -0.55078
  Beta  occ. eigenvalues --   -0.54271  -0.53757  -0.53004  -0.52694  -0.52057
  Beta  occ. eigenvalues --   -0.51680  -0.51325  -0.51022  -0.50810  -0.50359
  Beta  occ. eigenvalues --   -0.50177  -0.49720  -0.49596  -0.49108  -0.48937
  Beta  occ. eigenvalues --   -0.48147  -0.47709  -0.47654  -0.47486  -0.46606
  Beta  occ. eigenvalues --   -0.46018  -0.44923  -0.44537  -0.44082  -0.43056
  Beta  occ. eigenvalues --   -0.42700  -0.42277  -0.41813  -0.41589  -0.41317
  Beta  occ. eigenvalues --   -0.41089  -0.40700  -0.40231  -0.40095  -0.40031
  Beta  occ. eigenvalues --   -0.39320  -0.39094  -0.38650  -0.38404  -0.37177
  Beta  occ. eigenvalues --   -0.36526  -0.36296  -0.35346  -0.35273  -0.34217
  Beta  occ. eigenvalues --   -0.34025  -0.27948  -0.27530  -0.27239  -0.26860
  Beta virt. eigenvalues --   -0.10680   0.01318   0.01726   0.05401   0.06113
  Beta virt. eigenvalues --    0.07387   0.08424   0.08636   0.09016   0.09772
  Beta virt. eigenvalues --    0.10924   0.11468   0.11753   0.12246   0.12660
  Beta virt. eigenvalues --    0.12797   0.13628   0.13821   0.14103   0.14179
  Beta virt. eigenvalues --    0.14336   0.15084   0.15301   0.15563   0.16352
  Beta virt. eigenvalues --    0.16686   0.16969   0.17339   0.17928   0.18499
  Beta virt. eigenvalues --    0.19134   0.19536   0.19845   0.20137   0.20292
  Beta virt. eigenvalues --    0.20682   0.20884   0.21154   0.21405   0.21906
  Beta virt. eigenvalues --    0.22208   0.22382   0.22757   0.22820   0.23163
  Beta virt. eigenvalues --    0.23554   0.23619   0.23948   0.24010   0.24559
  Beta virt. eigenvalues --    0.24790   0.25176   0.25657   0.26323   0.26594
  Beta virt. eigenvalues --    0.27530   0.27884   0.29016   0.29674   0.30591
  Beta virt. eigenvalues --    0.31090   0.31471   0.31682   0.32678   0.32988
  Beta virt. eigenvalues --    0.33091   0.33890   0.34242   0.37348   0.37524
  Beta virt. eigenvalues --    0.38356   0.38636   0.39146   0.39494   0.40826
  Beta virt. eigenvalues --    0.41184   0.41825   0.42910   0.44024   0.45357
  Beta virt. eigenvalues --    0.47173   0.47423   0.47912   0.48735   0.50373
  Beta virt. eigenvalues --    0.50640   0.51430   0.51988   0.52583   0.53072
  Beta virt. eigenvalues --    0.53475   0.54835   0.55325   0.55719   0.56731
  Beta virt. eigenvalues --    0.57163   0.57308   0.58021   0.58228   0.58598
  Beta virt. eigenvalues --    0.58927   0.59204   0.59362   0.60199   0.60686
  Beta virt. eigenvalues --    0.61113   0.61481   0.62322   0.63533   0.64082
  Beta virt. eigenvalues --    0.64343   0.64775   0.65149   0.65550   0.65621
  Beta virt. eigenvalues --    0.65893   0.66092   0.66290   0.66572   0.66891
  Beta virt. eigenvalues --    0.66936   0.67054   0.67920   0.68212   0.68864
  Beta virt. eigenvalues --    0.69696   0.70692   0.71056   0.71415   0.71931
  Beta virt. eigenvalues --    0.72443   0.73140   0.73238   0.73664   0.74479
  Beta virt. eigenvalues --    0.74824   0.75141   0.76554   0.76594   0.77508
  Beta virt. eigenvalues --    0.78515   0.79477   0.80220   0.81748   0.81841
  Beta virt. eigenvalues --    0.82948   0.83205   0.83989   0.84306   0.84484
  Beta virt. eigenvalues --    0.85053   0.85448   0.85879   0.86338   0.86686
  Beta virt. eigenvalues --    0.87189   0.87469   0.87694   0.88219   0.88325
  Beta virt. eigenvalues --    0.89180   0.89626   0.90108   0.90340   0.90843
  Beta virt. eigenvalues --    0.91113   0.91197   0.91526   0.91718   0.92185
  Beta virt. eigenvalues --    0.92245   0.92753   0.93104   0.93405   0.93856
  Beta virt. eigenvalues --    0.94384   0.94463   0.94868   0.95764   0.96028
  Beta virt. eigenvalues --    0.96133   0.96219   0.96840   0.96883   0.97366
  Beta virt. eigenvalues --    0.98119   0.98416   0.98916   0.99506   0.99547
  Beta virt. eigenvalues --    1.00269   1.01039   1.01134   1.01395   1.01777
  Beta virt. eigenvalues --    1.02090   1.02313   1.02921   1.03207   1.03778
  Beta virt. eigenvalues --    1.04273   1.04710   1.05136   1.05762   1.06339
  Beta virt. eigenvalues --    1.06582   1.07474   1.07649   1.07861   1.08567
  Beta virt. eigenvalues --    1.09071   1.09479   1.09636   1.10731   1.11186
  Beta virt. eigenvalues --    1.11945   1.12244   1.13310   1.14303   1.14688
  Beta virt. eigenvalues --    1.15792   1.16172   1.18337   1.18664   1.19299
  Beta virt. eigenvalues --    1.19687   1.20412   1.21180   1.22493   1.22998
  Beta virt. eigenvalues --    1.23180   1.23859   1.24944   1.25384   1.26762
  Beta virt. eigenvalues --    1.29285   1.29308   1.30108   1.30161   1.31304
  Beta virt. eigenvalues --    1.32721   1.33923   1.34748   1.36059   1.36666
  Beta virt. eigenvalues --    1.37710   1.38312   1.38348   1.38894   1.40616
  Beta virt. eigenvalues --    1.41672   1.42487   1.42960   1.45037   1.45496
  Beta virt. eigenvalues --    1.46005   1.46672   1.47280   1.47893   1.48758
  Beta virt. eigenvalues --    1.49167   1.51005   1.51524   1.53060   1.53701
  Beta virt. eigenvalues --    1.54020   1.54721   1.54913   1.55541   1.56616
  Beta virt. eigenvalues --    1.56724   1.58379   1.58427   1.62488   1.63838
  Beta virt. eigenvalues --    1.64939   1.66003   1.66754   1.67207   1.68132
  Beta virt. eigenvalues --    1.69386   1.70052   1.71179   1.73821   1.75432
  Beta virt. eigenvalues --    1.76831   1.77899   1.79867   1.81144   1.83464
  Beta virt. eigenvalues --    1.83798   1.84568   1.85082   1.85271   1.85443
  Beta virt. eigenvalues --    1.85827   1.86054   1.86582   1.86886   1.87525
  Beta virt. eigenvalues --    1.87940   1.88015   1.88278   1.88456   1.89242
  Beta virt. eigenvalues --    1.89794   1.89994   1.90779   1.91672   1.92818
  Beta virt. eigenvalues --    1.93190   1.93381   1.94154   1.94848   1.95383
  Beta virt. eigenvalues --    1.95955   1.96826   1.97621   1.98329   1.98793
  Beta virt. eigenvalues --    1.99931   2.00182   2.00618   2.01200   2.01605
  Beta virt. eigenvalues --    2.01753   2.02297   2.02367   2.02929   2.03004
  Beta virt. eigenvalues --    2.03874   2.04325   2.04735   2.05312   2.06043
  Beta virt. eigenvalues --    2.06629   2.07000   2.07471   2.08708   2.08996
  Beta virt. eigenvalues --    2.10125   2.11003   2.12473   2.12827   2.13834
  Beta virt. eigenvalues --    2.14989   2.15322   2.15576   2.17345   2.17439
  Beta virt. eigenvalues --    2.19172   2.19795   2.20883   2.21649   2.21803
  Beta virt. eigenvalues --    2.22653   2.23380   2.24269   2.25816   2.26280
  Beta virt. eigenvalues --    2.26819   2.27567   2.27789   2.28379   2.29036
  Beta virt. eigenvalues --    2.29537   2.29843   2.30003   2.31284   2.31650
  Beta virt. eigenvalues --    2.31759   2.32369   2.32575   2.34085   2.34644
  Beta virt. eigenvalues --    2.35880   2.36764   2.38189   2.38544   2.40059
  Beta virt. eigenvalues --    2.40730   2.42389   2.42734   2.44458   2.44591
  Beta virt. eigenvalues --    2.45762   2.46442   2.47285   2.48775   2.49361
  Beta virt. eigenvalues --    2.49814   2.50175   2.54282   2.56004   2.56703
  Beta virt. eigenvalues --    2.58079   2.58972   2.61597   2.63167   2.64128
  Beta virt. eigenvalues --    2.64404   2.65586   2.66039   2.66575   2.67157
  Beta virt. eigenvalues --    2.68635   2.69216   2.70881   2.71415   2.71826
  Beta virt. eigenvalues --    2.72923   2.73789   2.76197   2.76761   2.77037
  Beta virt. eigenvalues --    2.78920   2.79278   2.80320   2.82003   2.82938
  Beta virt. eigenvalues --    2.83577   2.85063   2.85770   2.87302   2.87740
  Beta virt. eigenvalues --    2.89280   2.91787   2.93360   2.95390   2.98451
  Beta virt. eigenvalues --    3.09906   3.10283   3.21922   3.22422   3.25592
  Beta virt. eigenvalues --    3.26573   3.47638   3.48451   3.70312   3.89714
  Beta virt. eigenvalues --    3.96675   3.97743   3.99467   4.07701   4.08833
  Beta virt. eigenvalues --    4.10477   4.11575   4.12284   4.15981   4.16690
  Beta virt. eigenvalues --    4.17428   4.21217   4.22233   4.23138   4.24866
  Beta virt. eigenvalues --    4.29418   4.31468   4.34920   4.35366   4.36701
  Beta virt. eigenvalues --    4.39371   4.41003   4.42675   4.43433   4.44609
  Beta virt. eigenvalues --    4.47247   4.49750   4.51865   4.53640   4.56956
  Beta virt. eigenvalues --    4.67331   4.69945   4.80902   4.81862
          Condensed to atoms (all electrons):
          Atomic-Atomic Spin Densities.
 Mulliken charges and spin densities:
               1          2
     1  C   -0.184710  -0.000000
     2  C    0.186502   0.000000
     3  C    0.294128  -0.000000
     4  C   -0.170021   0.000000
     5  C   -0.186874  -0.000000
     6  C   -0.178454   0.000000
     7  H    0.177375   0.000000
     8  H    0.162762  -0.000000
     9  H    0.163151   0.000000
    10  H    0.162800  -0.000000
    11  N   -0.541195   0.000000
    12  N   -0.591450   0.000000
    13  C   -0.354753  -0.000000
    14  H    0.196494   0.000000
    15  H    0.201054   0.000000
    16  H    0.185448  -0.000000
    17  C    0.455736  -0.000002
    18  S    1.154168   0.000929
    19  O   -0.558166   0.000107
    20  O   -0.590061   0.000045
    21  C   -0.526525   0.000489
    22  C   -0.321617  -0.000036
    23  H    0.234366  -0.000025
    24  H    0.249066   0.000123
    25  C   -0.193597   0.000016
    26  H    0.151874   0.000011
    27  H    0.210519   0.000000
    28  C   -0.293367   0.000004
    29  H    0.194339  -0.000001
    30  H    0.139036  -0.000000
    31  H    0.165164  -0.000000
    32  C   -0.297753   0.000000
    33  C   -0.480668   0.000000
    34  H    0.158117  -0.000000
    35  H    0.169003   0.000000
    36  H    0.170537   0.000000
    37  H    0.152831  -0.000000
    38  H    0.161794  -0.000000
    39  C   -0.506454   0.002383
    40  H    0.204789  -0.000037
    41  C   -0.213293   0.004253
    42  H    0.196046  -0.000114
    43  C   -0.307218   0.016129
    44  H    0.226625  -0.000791
    45  H    0.190019  -0.000364
    46  H    0.244617  -0.000123
    47  C   -0.522343   0.143848
    48  H    0.250556  -0.007240
    49  H    0.217076  -0.007311
    50  C    0.483924  -0.000046
    51  C    0.191510  -0.000023
    52  C    0.301660   0.000024
    53  C   -0.184220  -0.000003
    54  C   -0.165328  -0.000014
    55  C   -0.178876  -0.000014
    56  H    0.174901   0.000001
    57  C   -0.187630  -0.000004
    58  H    0.164072   0.000001
    59  H    0.159742   0.000001
    60  H    0.160415   0.000000
    61  N   -0.563343  -0.000056
    62  N   -0.573839  -0.000177
    63  C   -0.368437  -0.000014
    64  H    0.184152  -0.000005
    65  H    0.218171   0.000000
    66  H    0.211148   0.000006
    67  S    0.999776   0.317996
    68  O   -0.510776   0.271504
    69  O   -0.524498   0.258529
 Sum of Mulliken charges =  -0.00000   1.00000
 Mulliken charges and spin densities with hydrogens summed into heavy atoms:
               1          2
     1  C   -0.007335  -0.000000
     2  C    0.186502   0.000000
     3  C    0.294128  -0.000000
     4  C   -0.007258   0.000000
     5  C   -0.023724  -0.000000
     6  C   -0.015654   0.000000
    11  N   -0.541195   0.000000
    12  N   -0.591450   0.000000
    13  C    0.228244  -0.000000
    17  C    0.455736  -0.000002
    18  S    1.154168   0.000929
    19  O   -0.558166   0.000107
    20  O   -0.590061   0.000045
    21  C   -0.043093   0.000588
    22  C    0.040775  -0.000025
    25  C    0.000741   0.000014
    28  C    0.010833   0.000004
    32  C    0.029366   0.000000
    33  C    0.004495   0.000001
    39  C   -0.057048   0.002223
    41  C   -0.017247   0.004139
    43  C    0.109426   0.014975
    47  C   -0.054710   0.129296
    50  C    0.483924  -0.000046
    51  C    0.191510  -0.000023
    52  C    0.301660   0.000024
    53  C   -0.009319  -0.000002
    54  C   -0.001255  -0.000013
    55  C   -0.019134  -0.000013
    57  C   -0.027215  -0.000004
    61  N   -0.563343  -0.000056
    62  N   -0.573839  -0.000177
    63  C    0.245034  -0.000013
    67  S    0.999776   0.317996
    68  O   -0.510776   0.271504
    69  O   -0.524498   0.258529
 Electronic spatial extent (au):  <R**2>=          26215.6362
 Charge=             -0.0000 electrons
 Dipole moment (field-independent basis, Debye):
    X=             -2.6768    Y=              1.9331    Z=             -2.6827  Tot=              4.2543
 Quadrupole moment (field-independent basis, Debye-Ang):
   XX=           -212.4365   YY=           -244.7569   ZZ=           -228.5407
   XY=            -21.0763   XZ=            -18.0422   YZ=            -10.0425
 Traceless Quadrupole moment (field-independent basis, Debye-Ang):
   XX=             16.1415   YY=            -16.1789   ZZ=              0.0374
   XY=            -21.0763   XZ=            -18.0422   YZ=            -10.0425
 Octapole moment (field-independent basis, Debye-Ang**2):
[...]
 .00004462,0.00003646,-0.00002051,-0.00003913,0.00004551,0.00000903,0.0
 0041763,0.00112882,0.00051067,-0.00003447,0.00044711,0.00044268,-0.000
 07308,0.00000940,-0.00041283,-0.00002418,-0.00003008,0.00003847,-0.000
 02279,0.00006712,0.00005908,-0.00007828,-0.00004346,-0.00008999,-0.135
 83202,0.49024781,-0.00000991,-0.00003345,0.00002728,-0.00001351,0.0000
 3809,0.00006230,-0.00001671,-0.00009664,0.00000912,-0.00002087,0.00002
 371,0.00003952,-0.00000067,0.00004478,-0.00002144,0.00000271,-0.000023
 43,-0.00004889,-0.00000386,-0.00000294,0.00000372,0.00001403,-0.000018
 28,0.00000904,0.00001542,0.00000495,-0.00001467,0.00000579,0.00000523,
 -0.00000406,0.00006953,0.00000016,-0.00010313,0.00003070,0.00001823,-0
 .00010739,-0.00002896,0.00000211,0.00006674,0.00000388,0.00000304,-0.0
 0000412,0.00001078,0.00001185,-0.00001613,0.00000611,0.00001392,0.0000
 0640,-0.00002142,0.00001996,0.00013269,-0.00052049,-0.00058106,-0.0001
 9153,0.00019111,0.00028412,0.00005267,0.00028809,0.00027182,0.00003410
 ,0.00005375,0.00009782,0.00009389,0.00002072,0.00005539,-0.00005646,-0
 .00001340,-0.00001567,0.00001115,0.00005496,-0.00000960,-0.00000181,-0
 .00003563,-0.00002961,0.00005706,-0.00003417,0.00000805,0.00004004,-0.
 00001488,-0.00001003,-0.00002236,0.00003700,0.00001967,-0.00002869,0.0
 0000779,-0.00000027,-0.00000921,-0.00000797,-0.00000201,0.00001654,-0.
 00001157,0.00000215,-0.00002565,-0.00001646,-0.00001788,0.00002410,0.0
 0001505,0.00000879,-0.00000543,0.00001300,0.00000121,-0.00001555,0.000
 00432,0.00000168,0.00000115,0.00001604,-0.00000230,0.00000255,-0.00000
 767,-0.00000210,0.00000593,-0.00000606,-0.00000183,-0.00000837,0.00014
 861,0.00015188,0.00012222,-0.00016916,-0.00006044,0.00005062,-0.001011
 28,0.00128175,-0.00025925,-0.00012832,-0.00031466,-0.00036995,-0.00728
 183,-0.01086137,-0.00654557,0.00333258,0.00261020,0.00019296,-0.000675
 26,0.00022667,0.00037568,-0.00002743,0.00006468,0.00003801,-0.01701363
 ,-0.02720528,-0.05483163,0.00243394,0.00795908,0.00555800,-0.00188999,
 -0.02229887,-0.01451559,0.00011543,0.00020566,-0.00028473,0.00039206,-
 0.00039878,-0.00013350,-0.00013662,-0.00003812,0.00035789,0.00004606,-
 0.00007751,0.00030672,0.00014091,-0.00015343,-0.00011385,-0.00011901,0
 .00011695,0.00006568,0.00001534,0.00005403,-0.00005706,-0.00009136,0.0
 0011725,-0.00014027,-0.00000875,-0.00001590,0.00000738,-0.00003472,0.0
 0005113,-0.00001079,-0.00001575,0.00001964,-0.00001106,0.00029292,0.00
 110616,-0.00014765,-0.00005264,0.00022505,-0.00027121,-0.00002672,-0.0
 0002108,-0.00006369,0.00002408,-0.00005935,-0.00001420,0.00000250,0.00
 003261,-0.00000380,-0.00007761,-0.00004138,-0.00003311,-0.00477657,-0.
 23780530,0.72726888,-0.00000401,-0.00000653,0.00001067,-0.00000020,0.0
 0000375,0.00000155,0.00001242,-0.00000915,-0.00003649,-0.00002174,0.00
 001123,0.00002330,-0.00000349,0.00001842,-0.00001705,-0.00000065,-0.00
 000799,-0.00001704,-0.00000066,-0.00000403,-0.00000079,0.00001913,-0.0
 0001243,-0.00000333,0.00000789,0.00000387,-0.00000261,0.00000115,-0.00
 000382,0.00000210,0.00000689,-0.00006223,-0.00002788,-0.00003200,-0.00
 006330,-0.00005525,0.00002269,0.00005680,0.00003126,-0.00000908,-0.000
 01202,-0.00000518,0.00002987,0.00001185,-0.00002945,0.00000486,0.00000
 800,0.00003775,-0.00000301,0.00007401,0.00010583,-0.00002066,0.0000318
 4,-0.00010788,0.00008842,-0.00001914,-0.00000436,0.00007489,-0.0000044
 4,-0.00003298,0.00000339,0.00004388,0.00007699,0.00001974,0.00006047,0
 .00000615,-0.00000721,0.00000191,0.00000846,0.00003750,-0.00000714,-0.
 00000474,-0.00000646,-0.00002292,0.00001478,-0.00000991,-0.00001314,-0
 .00000181,-0.00000435,-0.00000331,-0.00000608,0.00001789,0.00002357,0.
 00000142,-0.00000379,-0.00000529,-0.00000488,-0.00000399,-0.00001294,0
 .00000086,-0.00000271,-0.00000009,-0.00001027,0.00000056,-0.00000828,0
 .00000990,0.00000540,0.00000543,0.00000284,0.00000648,0.00000355,-0.00
 000695,-0.00000232,-0.00000402,-0.00000251,-0.00000140,-0.00000098,0.0
 0000128,-0.00000057,-0.00000526,-0.00000006,0.00000058,0.00000059,-0.0
 0000511,0.00004050,0.00039862,0.00037339,0.00001280,-0.00002378,0.0000
 7031,0.00150108,0.00069995,-0.00097324,-0.00012783,-0.00036296,-0.0002
 9280,-0.00147097,0.00096772,0.00209551,0.00066166,0.00095920,-0.000487
 32,0.00040159,0.00017027,0.00048951,0.00001301,0.00007062,0.00002455,0
 .00601933,-0.00516114,-0.00120128,-0.00001019,-0.00116003,-0.00042269,
 0.00135764,0.00055889,-0.00000909,-0.00002511,-0.00011311,-0.00016029,
 0.00002238,-0.00004583,-0.00004460,0.00001182,-0.00005572,0.00001119,0
 .00002180,0.00001388,0.00003622,0.00001854,0.00001070,-0.00001823,0.00
 001722,0.00000943,-0.00000098,-0.00002769,-0.00001190,0.00000351,0.000
 01031,0.00000455,-0.00000095,-0.00000734,-0.00000946,-0.00000003,-0.00
 001013,-0.00000387,-0.00000103,-0.00000843,-0.00000334,0.00000011,0.00
 025175,0.00012899,0.00001676,0.00002301,-0.00001792,-0.00002183,-0.000
 03798,-0.00001204,-0.00002911,0.00001659,-0.00001947,-0.00001018,-0.00
 000013,0.00001112,0.00000055,-0.00003235,-0.00001401,0.00000168,-0.097
 65981,-0.02732058,0.15540736,0.06783501,-0.00000445,0.00000795,-0.0000
 0272,0.00000639,0.00000223,-0.00000150,0.00000330,0.00000304,0.0000212
 3,-0.00000991,-0.00000805,-0.00001466,-0.00000807,-0.00000384,-0.00000
 220,-0.00000689,0.00000877,0.00000147,0.00000628,0.00000110,0.00000048
 ,0.00000802,-0.00000084,0.00000185,0.00000552,-0.00000197,0.00000217,0
 .00000499,-0.00000064,0.00000132,-0.00002914,0.00003044,0.00000287,-0.
 00001311,0.00003745,0.00001501,0.00000636,-0.00003841,-0.00000139,-0.0
 0001394,0.00000252,-0.00000472,0.00000602,-0.00001076,0.00000486,0.000
 00721,-0.00001550,-0.00000149,0.00000278,-0.00003022,-0.00003355,0.000
 40400,0.00015445,0.00033211,-0.00014033,-0.00004649,-0.00009779,-0.000
 16977,0.00000201,-0.00018121,-0.00001379,-0.00002760,-0.00004246,-0.00
 001962,-0.00003983,0.00001406,0.00001188,0.00001639,-0.00000543,-0.000
 02417,0.00000849,0.00000220,0.00002037,0.00002004,-0.00000817,0.000011
 25,-0.00001122,0.00000401,0.00000543,-0.00000449,-0.00000480,-0.000017
 57,-0.00003111,0.00000845,-0.00000087,0.00000236,0.00000224,0.00000086
 ,0.00000610,0.00000645,0.00000125,-0.00000136,-0.00000286,0.00000556,0
 .00001625,-0.00000377,-0.00000868,-0.00001254,0.00000125,0.00000094,-0
 .00000122,-0.00000133,0.00000126,0.00000293,0.00000104,-0.00000625,0.0
 0000424,-0.00000163,0.00000243,0.00000496,0.00000411,0.00000087,0.0000
 0030,-0.00000342,0.00005892,0.00002289,0.00007878,-0.00000891,-0.00000
 837,0.00002141,0.00064344,0.00099405,-0.00066771,-0.00004003,-0.000304
 41,-0.00014371,-0.00016399,0.00094922,0.00136936,0.00106365,0.00054005
 ,-0.00027615,-0.00053916,-0.00020479,-0.00024426,0.00000156,0.00002553
 ,0.00001240,0.01098572,0.00842719,-0.01560905,-0.00034245,0.00192955,0
 .00092628,-0.00118652,-0.00433957,-0.00295682,0.00003374,0.00013599,0.
 00050909,-0.00012470,0.00018626,-0.00000070,0.00003913,-0.00001709,-0.
 00013097,-0.00003014,-0.00000621,0.00001539,-0.00002682,0.00003585,0.0
 0000299,0.00000485,-0.00002149,-0.00005141,-0.00000578,0.00005431,-0.0
 0002479,0.00002653,-0.00003179,0.00004016,0.00000461,-0.00000367,-0.00
 001835,0.00001249,-0.00000954,0.00000787,0.00001389,-0.00001676,-0.000
 00768,-0.00012442,-0.00030520,-0.00030663,0.00011603,-0.00017141,-0.00
 029416,0.00001927,-0.00001284,0.00014811,0.00001431,-0.00000113,-0.000
 02742,0.00001155,-0.00002151,-0.00002627,0.00001491,0.00001083,0.00002
 989,-0.02538610,-0.08556448,0.11044952,0.02369232,0.07453411,0.0000069
 4,0.00002874,-0.00002131,0.00001362,-0.00003028,-0.00005480,0.00001773
 ,0.00008120,-0.00000798,0.00001258,-0.00001931,-0.00003271,-0.00000146
 ,-0.00003615,0.00001496,-0.00000363,0.00002016,0.00003903,0.00000432,0
 .00000211,-0.00000327,-0.00000743,0.00001351,-0.00000767,-0.00001087,-
 0.00000383,0.00001249,-0.00000367,-0.00000524,0.00000419,-0.00006635,-
 0.00000023,0.00008270,-0.00003513,-0.00001455,0.00008416,0.00002808,-0
 .00000412,-0.00004812,-0.00000803,-0.00000339,0.00000175,-0.00000274,-
 0.00000875,0.00000918,-0.00000231,-0.00001495,0.00000093,0.00001827,-0
 .00001615,-0.00010309,0.00043276,0.00058424,0.00045572,-0.00015135,-0.
 00027856,-0.00008637,-0.00027726,-0.00019617,-0.00013917,-0.00004306,-
 0.00012500,-0.00014409,-0.00002128,-0.00006148,0.00005252,0.00002261,0
 .00002397,-0.00001297,-0.00007225,0.00001334,0.00000306,0.00003470,0.0
 0003315,-0.00004857,0.00002820,-0.00001107,-0.00002780,0.00001139,0.00
 000482,0.00001353,-0.00003542,-0.00002456,0.00002841,-0.00000577,0.000
 00070,0.00000811,0.00000557,0.00000246,-0.00001012,0.00000897,-0.00000
 292,0.00001714,0.00001415,0.00002009,-0.00002034,-0.00001428,-0.000009
 97,0.00000601,-0.00000874,-0.00000051,0.00001084,-0.00000292,-0.000001
 16,-0.00000092,-0.00001504,0.00000330,-0.00000239,0.00000652,0.0000023
 8,-0.00000305,0.00000521,0.00000132,0.00000407,-0.00003416,-0.00042113
 ,-0.00021585,0.00009104,0.00003117,-0.00002753,0.00004767,0.00018307,0
 .00043564,0.00016361,0.00010135,0.00035675,0.00207223,0.00296343,0.002
 38741,-0.00135117,-0.00079492,-0.00043569,-0.00089417,-0.00050506,-0.0
 0009707,-0.00007268,-0.00005296,-0.00003228,0.01202937,0.00318435,-0.0
 2880371,0.00016210,0.00029501,-0.00037805,-0.00092246,-0.00659215,-0.0
 0253834,-0.00024462,0.00029305,0.00006852,-0.00015743,0.00021011,0.000
 11802,0.00009189,0.00000451,-0.00028189,-0.00006948,0.00009047,-0.0002
 5401,-0.00012401,0.00013000,0.00009616,0.00011085,-0.00011960,-0.00008
 590,-0.00001089,-0.00002942,0.00003929,0.00008139,-0.00009994,0.000143
 26,0.00000390,0.00001348,-0.00000895,0.00002883,-0.00004152,0.00000978
 ,0.00001633,-0.00001928,0.00000837,-0.00006142,-0.00059509,0.00017038,
 -0.00001008,-0.00017278,0.00024205,0.00001034,0.00002972,0.00007230,-0
 .00001247,0.00004747,0.00001473,0.00000564,-0.00003731,0.00000733,0.00
 007531,0.00003448,0.00005773,0.11504932,0.11568648,-0.47621424,-0.1335
 5189,-0.11855088,0.51329259,0.00000279,-0.00000126,0.00000357,-0.00000
 227,-0.00001409,-0.00001683,0.00001536,0.00002326,-0.00006777,-0.00000
 462,0.00000726,0.00002355,0.00000369,0.00000736,-0.00000699,0.00000347
 ,-0.00000880,-0.00000148,-0.00000433,-0.00000423,-0.00000161,0.0000050
 2,-0.00000429,-0.00000895,-0.00000214,0.00000265,0.00000076,-0.0000041
 9,-0.00000432,0.00000217,0.00001034,-0.00009609,0.00000494,-0.00003452
 ,-0.00011310,-0.00002940,0.00003628,0.00009953,-0.00000331,0.00000294,
 -0.00001592,0.00000328,0.00001879,0.00001821,-0.00003025,-0.00000477,0
 .00002478,0.00004098,0.00000314,0.00010233,0.00009706,-0.00016012,0.00
 008180,-0.00043019,0.00015345,-0.00004368,0.00007629,0.00014104,-0.000
 12649,0.00014134,0.00000281,0.00006243,0.00012338,0.00003606,0.0000993
 6,0.00002130,-0.00001510,-0.00001183,0.00001161,0.00006051,-0.00001414
 ,-0.00000622,-0.00001327,-0.00003979,0.00000052,-0.00000592,-0.0000054
 8,-0.00002905,-0.00000462,0.00000744,0.00000973,0.00002531,0.00005528,
 0.00000779,-0.00000831,-0.00000975,-0.00000354,-0.00000093,-0.00002138
 ,-0.00001447,0.00000061,0.00000086,0.00000166,0.00000307,-0.00002108,0
 .00000420,0.00000864,0.00001560,0.00000539,0.00000061,0.00000458,-0.00
 000026,-0.00000687,-0.00000838,-0.00000392,-0.00000218,-0.00000492,0.0
 0000186,0.00000068,-0.00001030,-0.00000714,0.00000242,0.00000114,0.000
 00089,-0.00000377,0.00049182,0.00046208,0.00008829,0.00002835,0.000032
 62,0.00177517,-0.00035677,0.00006643,-0.00009260,0.00004258,-0.0000294
 2,-0.00299313,0.00180989,0.00115962,0.00027822,-0.00019827,-0.00003010
 ,0.00207085,-0.00005181,0.00048744,0.00000823,0.00001192,-0.00000311,0
 .00380967,0.00150891,-0.00542450,0.00138913,0.00038248,0.00064790,-0.0
 0020670,-0.00018425,-0.00029911,-0.00004364,-0.00031857,-0.00070922,0.
 00010869,-0.00016548,-0.00002296,0.00000192,-0.00006164,0.00006540,0.0
 0002390,0.00001956,0.00002283,0.00003350,0.00000467,-0.00001557,0.0000
 1426,0.00001233,0.00001706,-0.00001430,-0.00002929,0.00001179,-0.00000
 031,0.00001729,-0.00000990,-0.00001173,-0.00000574,0.00000948,-0.00001
 345,0.00000047,-0.00000417,-0.00001491,0.00000296,0.00000382,0.0004098
 9,0.00031873,0.00026260,-0.00004663,0.00000721,0.00020375,-0.00005977,
 0.00000818,-0.00011825,0.00000586,-0.00001382,0.00000724,-0.00000578,0
 .00001966,0.00001996,-0.00003088,-0.00001205,-0.00001670,-0.18503883,0
 .19851794,-0.12889166,0.02096035,-0.00881431,0.00759438,0.15733562,-0.
 00000448,0.00001922,-0.00000870,0.00001538,-0.00000523,-0.00002154,0.0
 0001151,0.00002710,0.00002832,-0.00001197,-0.00001360,-0.00002920,-0.0
 0001293,-0.00001623,0.00000178,-0.00001106,0.00001818,0.00001241,0.000
 01034,0.00000181,-0.00000078,0.00001132,0.00000167,0.00000153,0.000006
 05,-0.00000287,0.00000645,0.00000637,-0.00000304,0.00000389,-0.0000665
 4,0.00004250,0.00002640,-0.00003447,0.00004828,0.00004130,0.00002278,-
 0.00005491,-0.00001130,-0.00002620,0.00000152,-0.00000574,0.00001007,-
 0.00001467,0.00000739,0.00001290,-0.00002839,0.00000194,0.00000828,-0.
 00004675,-0.00007590,0.00064282,0.00036879,0.00080971,-0.00026209,-0.0
 0018744,-0.00021104,-0.00031125,-0.00001752,-0.00036629,-0.00004360,-0
 .00010548,-0.00016345,-0.00003966,-0.00008229,0.00004655,0.00002997,0.
 00003530,-0.00001531,-0.00007851,0.00001650,0.00000735,0.00004384,0.00
 004249,-0.00002873,0.00002731,-0.00002188,-0.00000377,0.00001217,-0.00
 000654,-0.00000430,-0.00003976,-0.00005738,0.00002457,-0.00000390,0.00
 000380,0.00000613,0.00000285,0.00000945,0.00000923,0.00000438,-0.00000
 418,-0.00000241,0.00001284,0.00003261,-0.00001142,-0.00001861,-0.00002
 359,0.00000485,0.00000023,-0.00000112,-0.00000080,0.00000116,0.0000043
 6,0.00000127,-0.00001481,0.00000837,-0.00000314,0.00000564,0.00000848,
 0.00000746,0.00000314,0.00000026,-0.00000688,0.00000313,-0.00021896,-0
 .00021491,0.00004875,0.00002015,-0.00000186,0.00043046,0.00044902,0.00
 004290,0.00007608,-0.00004627,0.00002596,0.00176931,0.00364913,0.00137
 288,-0.00023669,-0.00060755,-0.00021320,-0.00080126,-0.00070315,0.0000
 0189,0.00000090,-0.00001798,-0.00001445,0.02377073,-0.02561640,0.01255
 428,-0.00222932,-0.00540587,-0.00537846,0.00000366,0.00070126,0.000965
 85,-0.00029428,-0.00002350,0.00103113,-0.00036530,0.00041934,0.0000706
 7,0.00017931,-0.00006081,-0.00032515,-0.00007649,0.00004092,-0.0001336
 8,-0.00011687,0.00014626,0.00006612,0.00006939,-0.00009581,-0.00012355
 ,-0.00000464,0.00004323,-0.00000558,0.00009066,-0.00011196,0.00014046,
 0.00001009,-0.00000390,-0.00003462,0.00003163,-0.00003062,0.00001492,0
 .00002696,-0.00003260,-0.00000369,-0.00049899,-0.00098550,-0.00052621,
 0.00020518,-0.00022925,-0.00030481,0.00003999,-0.00002409,0.00032234,0
 .00002626,0.00000561,-0.00004506,0.00001370,-0.00003804,-0.00005346,0.
 00002872,0.00002253,0.00005421,0.16433669,-0.28979798,0.17458965,0.006
 56814,0.00314847,0.00476665,-0.19302750,0.31540666,0.00000562,0.000009
 20,-0.00000984,0.00000034,-0.00001449,-0.00001717,0.00000160,0.0000314
 3,-0.00000783,0.00001286,-0.00000771,-0.00001056,0.00000351,-0.0000147
 0,0.00000995,0.00000186,0.00000523,0.00001772,-0.00000122,0.00000090,-
 0.00000111,-0.00000984,0.00000754,-0.00000353,-0.00000807,-0.00000182,
 0.00000424,-0.00000402,-0.00000069,0.00000035,-0.00000817,-0.00000855,
 0.00003715,-0.00000021,-0.00001537,0.00003760,0.00000545,0.00001023,-0
 .00002880,0.00000610,-0.00000128,0.00000287,-0.00000967,-0.00000396,0.
 00000831,-0.00000712,0.00000220,-0.00000793,0.00000689,0.00000136,-0.0
 0004336,0.00006424,0.00018194,-0.00031454,0.00000365,-0.00004578,0.000
 07737,-0.00004075,-0.00017565,0.00016428,-0.00000068,0.00000471,0.0000
 4973,0.00000548,0.00000921,0.00000657,-0.00000804,-0.00000778,0.000001
 92,0.00001440,-0.00000015,-0.00000188,0.00000294,-0.00000446,-0.000014
 62,0.00000910,0.00000451,-0.00002071,0.00000534,0.00000982,0.00001494,
 -0.00000284,0.00001026,0.00000266,-0.00000318,-0.00000125,0.00000199,0
 .00000384,-0.00000213,-0.00001202,0.00000465,0.00000136,0.00001453,0.0
 0000458,-0.00000353,-0.00000681,-0.00000130,0.00000245,-0.00000019,-0.
 00000704,-0.00000090,0.00000816,-0.00000287,-0.00000165,-0.00000075,-0
 .00000271,-0.00000185,-0.00000010,0.00000229,-0.00000115,-0.00000534,0
 .00000194,0.00000107,0.00000706,0.00004118,0.00009981,0.00016944,0.000
 04894,0.00002829,-0.00002541,0.00060247,-0.00023175,0.00031476,0.00000
 984,0.00018274,0.00013749,-0.00090064,0.00035789,0.00111598,-0.0003922
 1,-0.00059308,-0.00003988,0.00123419,-0.00005268,-0.00050514,-0.000011
 11,-0.00002880,-0.00000853,0.00713260,0.00004948,0.00604430,-0.0009712
 8,-0.00217924,-0.00064281,-0.00033258,0.00137775,0.00228593,-0.0000406
 3,-0.00011580,-0.00027555,-0.00001906,-0.00000302,0.00002613,-0.000020
 28,0.00004061,-0.00003253,0.00000974,0.00000987,-0.00005694,-0.0000032
 5,-0.00000010,0.00001687,0.00001604,-0.00000878,0.00001804,-0.00000177
 ,-0.00002732,0.00001920,0.00000015,-0.00000300,0.00000035,-0.00000103,
 0.00000790,0.00000815,0.00000301,-0.00000801,0.00000004,-0.00000204,0.
 00000250,0.00000416,0.00009302,-0.00010627,0.00021626,-0.00000276,-0.0
 0003964,0.00018978,-0.00001574,0.00002253,-0.00010077,-0.00002091,0.00
 002157,0.00001859,-0.00000150,-0.00000340,0.00002318,0.00002727,0.0000
 1490,-0.00000581,-0.10985237,0.16421204,-0.18033402,-0.02125755,0.0257
 1361,-0.00822088,0.12457935,-0.18871911,0.17967933\\0.00000026,0.00000
 069,0.00000165,0.00000025,0.00000149,0.00000129,0.00000036,0.00000091,
 -0.00000036,-0.00000022,0.00000125,0.00000090,0.00000041,0.00000181,0.
 00000037,-0.00000011,0.00000093,0.00000035,-0.00000015,0.00000086,0.00
 000125,0.00000027,0.00000131,0.00000014,0.00000007,0.00000181,0.000000
 58,0.00000004,0.00000150,0.00000105,0.00000046,0.00000038,-0.00000057,
 0.00000049,0.00000032,0.00000039,0.00000007,-0.00000025,-0.00000103,0.
 00000020,0.00000041,-0.00000078,0.00000023,0.00000089,-0.00000016,0.00
 000076,-0.00000015,-0.00000088,-0.00000042,-0.00000037,0.00000125,-0.0
 0000448,-0.00000193,0.00000184,0.00000153,-0.00000092,0.00000151,-0.00
 000073,0.00000002,-0.00000265,0.00000249,-0.00000012,0.00000136,0.0000
 0044,0.00000013,0.00000096,-0.00000004,-0.00000078,-0.00000017,-0.0000
 0019,0.00000038,-0.00000026,-0.00000156,-0.00000086,-0.00000116,-0.000
 00138,0.00000044,0.00000014,-0.00000017,-0.00000144,-0.00000034,0.0000
 0076,0.00000022,0.00000027,-0.00000037,0.00000009,-0.00000043,-0.00000
 029,-0.00000041,0.00000035,-0.00000002,-0.00000035,-0.00000021,0.00000
 026,-0.00000025,0.00000014,-0.00000008,-0.00000032,-0.00000057,-0.0000
 0027,-0.00000007,-0.00000012,0.00000011,-0.00000039,0.00000023,0.00000
 003,-0.00000020,-0.00000019,0.00000018,-0.00000021,-0.00000065,-0.0000
 0012,-0.00000065,-0.00000031,-0.00000058,0.00000099,0.00000037,0.00000
 077,0.00000008,-0.00000012,0.00000043,0.00000041,-0.00000079,0.0000005
 5,-0.00000090,-0.00000056,0.00000027,-0.00000091,0.00000018,0.00000025
 ,0.00000072,-0.00000056,0.00000019,-0.00000004,-0.00000117,-0.00000022
 ,-0.00000053,-0.00000067,-0.00000133,-0.00000105,-0.00000113,-0.000000
 31,0.00000031,-0.00000057,0.00000001,0.00000100,-0.00000030,-0.0000028
 8,-0.00000379,-0.00000081,-0.00000087,-0.00000007,-0.00000006,-0.00000
 090,0.00000033,0.00000018,-0.00000005,0.00000003,0.00000050,-0.0000003
 2,-0.00000106,0.00000019,-0.00000030,0.00000014,0.00000081,0.00000015,
 0.00000044,0.00000037,-0.00000021,-0.00000033,0.00000063,-0.00000028,-
 0.00000091,0.00000060,-0.00000012,0.00000032,0.00000078,-0.00000022,-0
 .00000044,0.00000089,0.00000233,0.00000171,0.00000104,0.00000272,0.000
 00027,0.00000067,-0.00000073,-0.00000136,-0.00000077,-0.00000013,-0.00
 000140,0.00000022,-0.00000090,-0.00000048,0.00000042,0.00000053,-0.000
 00080,-0.00000050,0.00000611,0.00000105,0.00000133,-0.00000105,0.00000
 130,-0.00000509,-0.00000195,-0.00000118,-0.00000125\\\@
 The archive entry for this job was punched.


 TRUST EVERYONE, BUT CUT THE CARDS.
 Job cpu time:       0 days 16 hours  9 minutes 18.3 seconds.
 Elapsed time:       0 days  0 hours 11 minutes 21.2 seconds.
 File lengths (MBytes):  RWF=   5642 Int=      0 D2E=      0 Chk=     46 Scr=      1
 Normal termination of Gaussian 16 at Fri Nov 21 15:47:52 2025.
