 Entering Gaussian System, Link 0=g16
 Initial command:
 /public/software/g16/l1.exe "/tmp/Gau-86845.inp" -scrdir="/tmp/"
 Entering Link 1 = /public/software/g16/l1.exe PID=     86846.
  
 Copyright (c) 1988-2021, Gaussian, Inc.  All Rights Reserved.
  
 This is part of the Gaussian(R) 16 program.  It is based on
 the Gaussian(R) 09 system (copyright 2009, Gaussian, Inc.),
 the Gaussian(R) 03 system (copyright 2003, Gaussian, Inc.),
 the Gaussian(R) 98 system (copyright 1998, Gaussian, Inc.),
 the Gaussian(R) 94 system (copyright 1995, Gaussian, Inc.),
 the Gaussian 92(TM) system (copyright 1992, Gaussian, Inc.),
 the Gaussian 90(TM) system (copyright 1990, Gaussian, Inc.),
 the Gaussian 88(TM) system (copyright 1988, Gaussian, Inc.),
 the Gaussian 86(TM) system (copyright 1986, Carnegie Mellon
 University), and the Gaussian 82(TM) system (copyright 1983,
 Carnegie Mellon University). Gaussian is a federally registered
 trademark of Gaussian, Inc.
  
 This software contains proprietary and confidential information,
 including trade secrets, belonging to Gaussian, Inc.
  
 This software is provided under written license and may be
 used, copied, transmitted, or stored only in accord with that
 written license.
  
 The following legend is applicable only to US Government
 contracts under FAR:
  
                    RESTRICTED RIGHTS LEGEND
  
 Use, reproduction and disclosure by the US Government is
 subject to restrictions as set forth in subparagraphs (a)
 and (c) of the Commercial Computer Software - Restricted
 Rights clause in FAR 52.227-19.
  
 Gaussian, Inc.
 340 Quinnipiac St., Bldg. 40, Wallingford CT 06492
  
  
 ---------------------------------------------------------------
 Warning -- This program may not be used in any manner that
 competes with the business of Gaussian, Inc. or will provide
 assistance to any competitor of Gaussian, Inc.  The licensee
 of this program is prohibited from giving any competitor of
 Gaussian, Inc. access to this program.  By using this program,
 the user acknowledges that Gaussian, Inc. is engaged in the
 business of creating and licensing software in the field of
 computational chemistry and represents and warrants to the
 licensee that it is not a competitor of Gaussian, Inc. and that
 it will not use this program in any manner prohibited above.
 ---------------------------------------------------------------
  

 Cite this work as:
 Gaussian 16, Revision C.02,
 M. J. Frisch, G. W. Trucks, H. B. Schlegel, G. E. Scuseria, 
 M. A. Robb, J. R. Cheeseman, G. Scalmani, V. Barone, 
 G. A. Petersson, H. Nakatsuji, X. Li, M. Caricato, A. V. Marenich, 
 J. Bloino, B. G. Janesko, R. Gomperts, B. Mennucci, H. P. Hratchian, 
 J. V. Ortiz, A. F. Izmaylov, J. L. Sonnenberg, D. Williams-Young, 
 F. Ding, F. Lipparini, F. Egidi, J. Goings, B. Peng, A. Petrone, 
 T. Henderson, D. Ranasinghe, V. G. Zakrzewski, J. Gao, N. Rega, 
 G. Zheng, W. Liang, M. Hada, M. Ehara, K. Toyota, R. Fukuda, 
 J. Hasegawa, M. Ishida, T. Nakajima, Y. Honda, O. Kitao, H. Nakai, 
 T. Vreven, K. Throssell, J. A. Montgomery, Jr., J. E. Peralta, 
 F. Ogliaro, M. J. Bearpark, J. J. Heyd, E. N. Brothers, K. N. Kudin, 
 V. N. Staroverov, T. A. Keith, R. Kobayashi, J. Normand, 
 K. Raghavachari, A. P. Rendell, J. C. Burant, S. S. Iyengar, 
 J. Tomasi, M. Cossi, J. M. Millam, M. Klene, C. Adamo, R. Cammi, 
 J. W. Ochterski, R. L. Martin, K. Morokuma, O. Farkas, 
 J. B. Foresman, and D. J. Fox, Gaussian, Inc., Wallingford CT, 2019.
 
 ******************************************
 Gaussian 16:  ES64L-G16RevC.02  7-Dec-2021
                21-Nov-2025 
 ******************************************
 %nprocshared=96
 Will use up to   96 processors via shared memory.
 %mem=50GB
 %chk=M1.chk
 -------------------------
 # opt freq 6-31g(d) m062x
 -------------------------
 1/18=20,19=15,26=3,38=1/1,3;
 2/9=110,12=2,17=6,18=5,40=1/2;
 3/5=1,6=6,7=1,11=2,25=1,30=1,71=1,74=-55/1,2,3;
 4//1;
 5/5=2,38=5/2;
 6/7=2,8=2,9=2,10=2,28=1/1;
 7//1,2,3,16;
 1/18=20,19=15,26=3/3(2);
 2/9=110/2;
 99//99;
 2/9=110/2;
 3/5=1,6=6,7=1,11=2,25=1,30=1,71=1,74=-55/1,2,3;
 4/5=5,16=3,69=1/1;
 5/5=2,38=5/2;
 7//1,2,3,16;
 1/18=20,19=15,26=3/3(-5);
 2/9=110/2;
 6/7=2,8=2,9=2,10=2,19=2,28=1/1;
 99/9=1/99;
 -------------------
 Title Card Required
 -------------------
 Symbolic Z-matrix:
 Charge =  0 Multiplicity = 1
 C                    -3.0421    2.54288  -0.44434 
 C                    -2.47707   1.27529  -0.24657 
 C                    -3.28551   0.19539   0.16261 
 C                    -4.6584    0.3289    0.39393 
 C                    -5.19493   1.58957   0.19347 
 C                    -4.40015   2.6815   -0.22024 
 H                    -2.42499   3.37712  -0.76069 
 H                    -5.27148  -0.50528   0.71773 
 H                    -6.25577   1.74439   0.36099 
 H                    -4.87037   3.64887  -0.36237 
 N                    -2.43721  -0.88977   0.25344 
 N                    -1.16408   0.85805  -0.39094 
 C                    -1.20878  -0.40783  -0.0813 
 C                    -2.78868  -2.23773   0.68026 
 H                    -2.10757  -2.95153   0.21667 
 H                    -2.73335  -2.32194   1.76723 
 H                    -3.80262  -2.4529    0.34188 
 S                     0.2341   -1.45789  -0.07148 
 O                     0.08658  -2.44505  -1.14644 
 O                     0.40468  -1.95655   1.29694 
 C                     1.56374  -0.33191  -0.47433 
 C                     2.88787  -1.12098  -0.52142 
 H                     1.56822   0.43827   0.30084 
 H                     1.31672   0.12175  -1.43675 
 C                     4.02587  -0.20416  -0.82839 
 H                     3.0371   -1.60162   0.45354 
 H                     2.80159  -1.90761  -1.27709 
 C                     4.50203   0.65895   0.1016 
 H                     4.27438  -0.02754  -1.87166 
 H                     5.1038    1.45367  -0.37597 
 H                     4.16604   0.34652   1.10106 
 

 GradGradGradGradGradGradGradGradGradGradGradGradGradGradGradGradGradGrad
 Berny optimization.
 Initialization pass.
                           ----------------------------
                           !    Initial Parameters    !
                           ! (Angstroms and Degrees)  !
 --------------------------                            --------------------------
 ! Name  Definition              Value          Derivative Info.                !
 --------------------------------------------------------------------------------
 ! R1    R(1,2)                  1.4018         estimate D2E/DX2                !
 ! R2    R(1,6)                  1.3834         estimate D2E/DX2                !
 ! R3    R(1,7)                  1.0848         estimate D2E/DX2                !
 ! R4    R(2,3)                  1.4097         estimate D2E/DX2                !
 ! R5    R(2,12)                 1.3852         estimate D2E/DX2                !
 ! R6    R(3,4)                  1.3986         estimate D2E/DX2                !
 ! R7    R(3,11)                 1.3804         estimate D2E/DX2                !
 ! R8    R(4,5)                  1.3847         estimate D2E/DX2                !
 ! R9    R(4,8)                  1.0847         estimate D2E/DX2                !
 ! R10   R(5,6)                  1.4125         estimate D2E/DX2                !
 ! R11   R(5,9)                  1.0851         estimate D2E/DX2                !
 ! R12   R(6,10)                 1.0849         estimate D2E/DX2                !
 ! R13   R(11,13)                1.3614         estimate D2E/DX2                !
 ! R14   R(11,14)                1.4569         estimate D2E/DX2                !
 ! R15   R(12,13)                1.304          estimate D2E/DX2                !
 ! R16   R(13,18)                1.7845         estimate D2E/DX2                !
 ! R17   R(14,15)                1.0901         estimate D2E/DX2                !
 ! R18   R(14,16)                1.0916         estimate D2E/DX2                !
 ! R19   R(14,17)                1.0904         estimate D2E/DX2                !
 ! R20   R(18,19)                1.4669         estimate D2E/DX2                !
 ! R21   R(18,20)                1.4664         estimate D2E/DX2                !
 ! R22   R(18,21)                1.7883         estimate D2E/DX2                !
 ! R23   R(21,22)                1.5421         estimate D2E/DX2                !
 ! R24   R(21,23)                1.0927         estimate D2E/DX2                !
 ! R25   R(21,24)                1.0923         estimate D2E/DX2                !
 ! R26   R(22,25)                1.4933         estimate D2E/DX2                !
 ! R27   R(22,26)                1.0972         estimate D2E/DX2                !
 ! R28   R(22,27)                1.0942         estimate D2E/DX2                !
 ! R29   R(25,28)                1.3552         estimate D2E/DX2                !
 ! R30   R(25,29)                1.0869         estimate D2E/DX2                !
 ! R31   R(28,30)                1.1053         estimate D2E/DX2                !
 ! R32   R(28,31)                1.0997         estimate D2E/DX2                !
 ! A1    A(2,1,6)              117.6087         estimate D2E/DX2                !
 ! A2    A(2,1,7)              120.4786         estimate D2E/DX2                !
 ! A3    A(6,1,7)              121.9126         estimate D2E/DX2                !
 ! A4    A(1,2,3)              120.1654         estimate D2E/DX2                !
 ! A5    A(1,2,12)             129.7693         estimate D2E/DX2                !
 ! A6    A(3,2,12)             110.0652         estimate D2E/DX2                !
 ! A7    A(2,3,4)              122.5353         estimate D2E/DX2                !
 ! A8    A(2,3,11)             105.5984         estimate D2E/DX2                !
 ! A9    A(4,3,11)             131.8662         estimate D2E/DX2                !
 ! A10   A(3,4,5)              116.315          estimate D2E/DX2                !
 ! A11   A(3,4,8)              122.057          estimate D2E/DX2                !
 ! A12   A(5,4,8)              121.6272         estimate D2E/DX2                !
 ! A13   A(4,5,6)              121.8839         estimate D2E/DX2                !
 ! A14   A(4,5,9)              119.1015         estimate D2E/DX2                !
 ! A15   A(6,5,9)              119.0144         estimate D2E/DX2                !
 ! A16   A(1,6,5)              121.4909         estimate D2E/DX2                !
 ! A17   A(1,6,10)             119.577          estimate D2E/DX2                !
 ! A18   A(5,6,10)             118.932          estimate D2E/DX2                !
 ! A19   A(3,11,13)            105.073          estimate D2E/DX2                !
 ! A20   A(3,11,14)            126.7519         estimate D2E/DX2                !
 ! A21   A(13,11,14)           128.1148         estimate D2E/DX2                !
 ! A22   A(2,12,13)            103.6019         estimate D2E/DX2                !
 ! A23   A(11,13,12)           115.6572         estimate D2E/DX2                !
 ! A24   A(11,13,18)           121.327          estimate D2E/DX2                !
 ! A25   A(12,13,18)           123.0126         estimate D2E/DX2                !
 ! A26   A(11,14,15)           109.2991         estimate D2E/DX2                !
 ! A27   A(11,14,16)           110.5391         estimate D2E/DX2                !
 ! A28   A(11,14,17)           108.421          estimate D2E/DX2                !
 ! A29   A(15,14,16)           109.9543         estimate D2E/DX2                !
 ! A30   A(15,14,17)           108.6524         estimate D2E/DX2                !
 ! A31   A(16,14,17)           109.9334         estimate D2E/DX2                !
 ! A32   A(13,18,19)           108.0975         estimate D2E/DX2                !
 ! A33   A(13,18,20)           107.4146         estimate D2E/DX2                !
 ! A34   A(13,18,21)           103.2639         estimate D2E/DX2                !
 ! A35   A(19,18,20)           117.8203         estimate D2E/DX2                !
 ! A36   A(19,18,21)           109.4759         estimate D2E/DX2                !
 ! A37   A(20,18,21)           109.7452         estimate D2E/DX2                !
 ! A38   A(18,21,22)           108.8518         estimate D2E/DX2                !
 ! A39   A(18,21,23)           106.6795         estimate D2E/DX2                !
 ! A40   A(18,21,24)           106.9682         estimate D2E/DX2                !
 ! A41   A(22,21,23)           112.2582         estimate D2E/DX2                !
 ! A42   A(22,21,24)           112.3206         estimate D2E/DX2                !
 ! A43   A(23,21,24)           109.4658         estimate D2E/DX2                !
 ! A44   A(21,22,25)           110.2723         estimate D2E/DX2                !
 ! A45   A(21,22,26)           108.288          estimate D2E/DX2                !
 ! A46   A(21,22,27)           108.7374         estimate D2E/DX2                !
 ! A47   A(25,22,26)           110.3631         estimate D2E/DX2                !
 ! A48   A(25,22,27)           111.0707         estimate D2E/DX2                !
 ! A49   A(26,22,27)           108.0277         estimate D2E/DX2                !
 ! A50   A(22,25,28)           121.1801         estimate D2E/DX2                !
 ! A51   A(22,25,29)           118.1204         estimate D2E/DX2                !
 ! A52   A(28,25,29)           118.3501         estimate D2E/DX2                !
 ! A53   A(25,28,30)           110.6527         estimate D2E/DX2                !
 ! A54   A(25,28,31)           109.5952         estimate D2E/DX2                !
 ! A55   A(30,28,31)           139.7521         estimate D2E/DX2                !
 ! D1    D(6,1,2,3)              0.1721         estimate D2E/DX2                !
 ! D2    D(6,1,2,12)          -179.7853         estimate D2E/DX2                !
 ! D3    D(7,1,2,3)           -179.9042         estimate D2E/DX2                !
 ! D4    D(7,1,2,12)             0.1385         estimate D2E/DX2                !
 ! D5    D(2,1,6,5)              0.0182         estimate D2E/DX2                !
 ! D6    D(2,1,6,10)           179.9185         estimate D2E/DX2                !
 ! D7    D(7,1,6,5)           -179.9044         estimate D2E/DX2                !
 ! D8    D(7,1,6,10)            -0.0041         estimate D2E/DX2                !
 ! D9    D(1,2,3,4)             -0.329          estimate D2E/DX2                !
 ! D10   D(1,2,3,11)           179.5693         estimate D2E/DX2                !
 ! D11   D(12,2,3,4)           179.6361         estimate D2E/DX2                !
 ! D12   D(12,2,3,11)           -0.4656         estimate D2E/DX2                !
 ! D13   D(1,2,12,13)         -179.9546         estimate D2E/DX2                !
 ! D14   D(3,2,12,13)            0.0846         estimate D2E/DX2                !
 ! D15   D(2,3,4,5)              0.2711         estimate D2E/DX2                !
 ! D16   D(2,3,4,8)           -179.409          estimate D2E/DX2                !
 ! D17   D(11,3,4,5)          -179.5974         estimate D2E/DX2                !
 ! D18   D(11,3,4,8)             0.7225         estimate D2E/DX2                !
 ! D19   D(2,3,11,13)            0.6354         estimate D2E/DX2                !
 ! D20   D(2,3,11,14)          177.9833         estimate D2E/DX2                !
 ! D21   D(4,3,11,13)         -179.4798         estimate D2E/DX2                !
 ! D22   D(4,3,11,14)           -2.1318         estimate D2E/DX2                !
 ! D23   D(3,4,5,6)             -0.0742         estimate D2E/DX2                !
 ! D24   D(3,4,5,9)           -179.9304         estimate D2E/DX2                !
 ! D25   D(8,4,5,6)            179.6074         estimate D2E/DX2                !
 ! D26   D(8,4,5,9)             -0.2489         estimate D2E/DX2                !
 ! D27   D(4,5,6,1)             -0.0681         estimate D2E/DX2                !
 ! D28   D(4,5,6,10)          -179.969          estimate D2E/DX2                !
 ! D29   D(9,5,6,1)            179.7883         estimate D2E/DX2                !
 ! D30   D(9,5,6,10)            -0.1127         estimate D2E/DX2                !
 ! D31   D(3,11,13,12)          -0.6551         estimate D2E/DX2                !
 ! D32   D(3,11,13,18)         178.7008         estimate D2E/DX2                !
 ! D33   D(14,11,13,12)       -177.9542         estimate D2E/DX2                !
 ! D34   D(14,11,13,18)          1.4017         estimate D2E/DX2                !
 ! D35   D(3,11,14,15)         152.8674         estimate D2E/DX2                !
 ! D36   D(3,11,14,16)         -85.9791         estimate D2E/DX2                !
 ! D37   D(3,11,14,17)          34.5861         estimate D2E/DX2                !
 ! D38   D(13,11,14,15)        -30.388          estimate D2E/DX2                !
 ! D39   D(13,11,14,16)         90.7655         estimate D2E/DX2                !
 ! D40   D(13,11,14,17)       -148.6693         estimate D2E/DX2                !
 ! D41   D(2,12,13,11)           0.3577         estimate D2E/DX2                !
 ! D42   D(2,12,13,18)        -178.9862         estimate D2E/DX2                !
 ! D43   D(11,13,18,19)         67.5321         estimate D2E/DX2                !
 ! D44   D(11,13,18,20)        -60.5712         estimate D2E/DX2                !
 ! D45   D(11,13,18,21)       -176.529          estimate D2E/DX2                !
 ! D46   D(12,13,18,19)       -113.1602         estimate D2E/DX2                !
 ! D47   D(12,13,18,20)        118.7364         estimate D2E/DX2                !
 ! D48   D(12,13,18,21)          2.7786         estimate D2E/DX2                !
 ! D49   D(13,18,21,22)       -179.1691         estimate D2E/DX2                !
 ! D50   D(13,18,21,23)         59.4896         estimate D2E/DX2                !
 ! D51   D(13,18,21,24)        -57.5841         estimate D2E/DX2                !
 ! D52   D(19,18,21,22)        -64.2157         estimate D2E/DX2                !
 ! D53   D(19,18,21,23)        174.443          estimate D2E/DX2                !
 ! D54   D(19,18,21,24)         57.3693         estimate D2E/DX2                !
 ! D55   D(20,18,21,22)         66.5439         estimate D2E/DX2                !
 ! D56   D(20,18,21,23)        -54.7973         estimate D2E/DX2                !
 ! D57   D(20,18,21,24)       -171.8711         estimate D2E/DX2                !
 ! D58   D(18,21,22,25)       -178.8401         estimate D2E/DX2                !
 ! D59   D(18,21,22,26)        -57.9931         estimate D2E/DX2                !
 ! D60   D(18,21,22,27)         59.1545         estimate D2E/DX2                !
 ! D61   D(23,21,22,25)        -60.9713         estimate D2E/DX2                !
 ! D62   D(23,21,22,26)         59.8757         estimate D2E/DX2                !
 ! D63   D(23,21,22,27)        177.0233         estimate D2E/DX2                !
 ! D64   D(24,21,22,25)         62.8957         estimate D2E/DX2                !
 ! D65   D(24,21,22,26)       -176.2573         estimate D2E/DX2                !
 ! D66   D(24,21,22,27)        -59.1097         estimate D2E/DX2                !
 ! D67   D(21,22,25,28)         73.7528         estimate D2E/DX2                !
 ! D68   D(21,22,25,29)        -88.5577         estimate D2E/DX2                !
 ! D69   D(26,22,25,28)        -45.8449         estimate D2E/DX2                !
 ! D70   D(26,22,25,29)        151.8446         estimate D2E/DX2                !
 ! D71   D(27,22,25,28)       -165.6308         estimate D2E/DX2                !
 ! D72   D(27,22,25,29)         32.0588         estimate D2E/DX2                !
 ! D73   D(22,25,28,30)       -162.2711         estimate D2E/DX2                !
 ! D74   D(22,25,28,31)         17.7289         estimate D2E/DX2                !
 ! D75   D(29,25,28,30)          0.0            estimate D2E/DX2                !
 ! D76   D(29,25,28,31)        180.0            estimate D2E/DX2                !
 --------------------------------------------------------------------------------
 Trust Radius=3.00D-01 FncErr=1.00D-07 GrdErr=1.00D-06 EigMax=2.50D+02 EigMin=1.00D-04
 Number of steps in this run=    173 maximum allowed number of steps=    186.
 GradGradGradGradGradGradGradGradGradGradGradGradGradGradGradGradGradGrad

                          Input orientation:                          
 ---------------------------------------------------------------------
 Center     Atomic      Atomic             Coordinates (Angstroms)
 Number     Number       Type             X           Y           Z
 ---------------------------------------------------------------------
      1          6           0       -3.042096    2.542883   -0.444344
      2          6           0       -2.477069    1.275292   -0.246568
      3          6           0       -3.285509    0.195390    0.162607
      4          6           0       -4.658404    0.328903    0.393934
      5          6           0       -5.194926    1.589574    0.193469
      6          6           0       -4.400148    2.681500   -0.220236
      7          1           0       -2.424988    3.377117   -0.760685
      8          1           0       -5.271483   -0.505283    0.717732
      9          1           0       -6.255769    1.744388    0.360990
     10          1           0       -4.870374    3.648867   -0.362368
     11          7           0       -2.437207   -0.889774    0.253441
     12          7           0       -1.164081    0.858047   -0.390942
     13          6           0       -1.208775   -0.407832   -0.081295
     14          6           0       -2.788680   -2.237728    0.680259
     15          1           0       -2.107568   -2.951528    0.216668
     16          1           0       -2.733346   -2.321938    1.767228
     17          1           0       -3.802617   -2.452900    0.341881
     18         16           0        0.234101   -1.457888   -0.071476
     19          8           0        0.086579   -2.445054   -1.146443
     20          8           0        0.404681   -1.956550    1.296942
     21          6           0        1.563741   -0.331907   -0.474326
     22          6           0        2.887872   -1.120980   -0.521421
     23          1           0        1.568218    0.438269    0.300844
     24          1           0        1.316718    0.121747   -1.436747
     25          6           0        4.025871   -0.204164   -0.828385
     26          1           0        3.037104   -1.601618    0.453543
     27          1           0        2.801587   -1.907613   -1.277091
     28          6           0        4.502025    0.658953    0.101600
     29          1           0        4.274379   -0.027542   -1.871660
     30          1           0        5.103797    1.453669   -0.375973
     31          1           0        4.166037    0.346515    1.101057
 ---------------------------------------------------------------------
                    Distance matrix (angstroms):
                    1          2          3          4          5
     1  C    0.000000
     2  C    1.401841   0.000000
     3  C    2.436876   1.409676   0.000000
     4  C    2.866508   2.462543   1.398635   0.000000
     5  C    2.439320   2.771128   2.364440   1.384678   0.000000
     6  C    1.383381   2.382509   2.751315   2.445120   1.412489
     7  H    1.084823   2.164416   3.422916   3.951316   3.431949
     8  H    3.951190   3.450952   2.177889   1.084701   2.160819
     9  H    3.407910   3.855872   3.355770   2.134539   1.085089
    10  H    2.138345   3.372711   3.835870   3.411610   2.157539
    11  N    3.554705   2.222411   1.380380   2.537445   3.708878
    12  N    2.523582   1.385235   2.290412   3.620265   4.138161
    13  C    3.492791   2.113952   2.176279   3.559292   4.467049
    14  C    4.917641   3.646563   2.536704   3.188329   4.547002
    15  H    5.612382   4.268153   3.360589   4.159257   5.491259
    16  H    5.352837   4.130510   3.035891   3.552287   4.882215
    17  H    5.114136   4.000346   2.704252   2.910929   4.278101
    18  S    5.184464   3.853748   3.895610   5.229324   6.231497
    19  O    5.929677   4.606847   4.478452   5.708105   6.779962
    20  O    5.929355   4.596924   4.419849   5.627926   6.719244
    21  C    5.429461   4.354665   4.919243   6.317091   7.058160
    22  C    6.970965   5.882198   6.349123   7.738625   8.555103
    23  H    5.122470   4.167087   4.861766   6.228278   6.861279
    24  H    5.083898   4.140050   4.872766   6.252711   6.871217
    25  C    7.592754   6.694440   7.389045   8.786060   9.449062
    26  H    7.412136   6.258823   6.579462   7.934186   8.832761
    27  H    7.392497   6.249566   6.599098   7.965287   8.850824
    28  C    7.794935   7.014902   7.801558   9.171034   9.741938
    29  H    7.885120   7.065433   7.831976   9.222504   9.825862
    30  H    8.218676   7.584068   8.500223   9.856897  10.315349
    31  H    7.692170   6.841752   7.511928   8.852745   9.486650
                    6          7          8          9         10
     6  C    0.000000
     7  H    2.162689   0.000000
     8  H    3.434326   5.035998   0.000000
     9  H    2.158549   4.312637   2.481351   0.000000
    10  H    1.084948   2.492472   4.310971   2.463657   0.000000
    11  N    4.102622   4.385768   2.897675   4.640236   5.186404
    12  N    3.718367   2.841181   4.467502   5.222671   4.639623
    13  C    4.443888   4.033185   4.141683   5.504527   5.472030
    14  C    5.254191   5.808190   3.027719   5.289602   6.330286
    15  H    6.097361   6.411530   4.030575   6.267378   7.178690
    16  H    5.635835   6.242168   3.292995   5.560573   6.689737
    17  H    5.199527   6.091191   2.468206   4.861640   6.234391
    18  S    6.215539   5.560849   5.642850   7.249828   7.226287
    19  O    6.875328   6.352516   5.995556   7.749139   7.894430
    20  O    6.848337   6.378782   5.887317   7.676884   7.874022
    21  C    6.686790   5.454248   6.940558   8.133480   7.566831
    22  C    8.225862   6.965386   8.275848   9.622638   9.108629
    23  H    6.397265   5.070440   6.917051   7.932486   7.225182
    24  H    6.380814   5.005483   6.959838   7.950307   7.202428
    25  C    8.927189   7.378600   9.429843  10.532027   9.705988
    26  H    8.608821   7.489766   8.384770   9.877338   9.526884
    27  H    8.604760   7.450646   8.433286   9.902329   9.516836
    28  C    9.134712   7.491026   9.861873  10.815526   9.848691
    29  H    9.236532   7.596544   9.902357  10.909101   9.970981
    30  H    9.584195   7.780119  10.615089  11.387158  10.212892
    31  H    8.976497   7.489475   9.483632  10.541147   9.731591
                   11         12         13         14         15
    11  N    0.000000
    12  N    2.256315   0.000000
    13  C    1.361382   1.303966   0.000000
    14  C    1.456944   3.656585   2.534676   0.000000
    15  H    2.088263   3.971425   2.714222   1.090110   0.000000
    16  H    2.104838   4.151216   3.066783   1.091629   1.786678
    17  H    2.077385   4.296658   3.330075   1.090352   1.771299
    18  S    2.750311   2.724064   1.784546   3.210991   2.792383
    19  O    3.278424   3.611843   2.638703   3.412761   2.632274
    20  O    3.209865   3.637571   2.627033   3.264493   2.910046
    21  C    4.104686   2.977240   2.801265   4.889661   4.562718
    22  C    5.386124   4.511308   4.181484   5.908841   5.371229
    23  H    4.220115   2.849603   2.928072   5.127131   5.000921
    24  H    4.239323   2.791095   2.914759   5.186823   4.889226
    25  C    6.588762   5.315567   5.291611   7.269766   6.801413
    26  H    5.524024   4.940958   4.442822   5.864793   5.324098
    27  H    5.551890   4.915349   4.445478   5.932224   5.236495
    28  C    7.111579   5.690958   5.812463   7.866384   7.532300
    29  H    7.092594   5.705580   5.780571   7.828411   7.323937
    30  H    7.921782   6.296132   6.587912   8.776858   8.471173
    31  H    6.771240   5.558586   5.554782   7.431250   7.142643
                   16         17         18         19         20
    16  H    0.000000
    17  H    1.786646   0.000000
    18  S    3.596270   4.178038   0.000000
    19  O    4.056675   4.164254   1.466906   0.000000
    20  O    3.194040   4.342794   1.466400   2.511962   0.000000
    21  C    5.239250   5.827744   1.788313   2.664421   2.668384
    22  C    6.186946   6.876187   2.712648   3.160865   3.189178
    23  H    5.317187   6.099706   2.348170   3.550133   2.842743
    24  H    5.713149   5.999993   2.351865   2.861116   3.553053
    25  C    7.543818   8.228703   4.064758   4.543211   4.549823
    26  H    5.961772   6.893398   2.855368   3.460771   2.786925
    27  H    6.330484   6.821577   2.871889   2.770772   3.517556
    28  C    8.000664   8.871778   4.767195   5.539733   5.005790
    29  H    8.222771   8.718944   4.648699   4.889578   5.360566
    30  H    8.959315   9.751964   5.681885   6.400480   6.042345
    31  H    7.427376   8.480125   4.482279   5.430110   4.414779
                   21         22         23         24         25
    21  C    0.000000
    22  C    1.542134   0.000000
    23  H    1.092740   2.202014   0.000000
    24  H    1.092280   2.202434   1.784001   0.000000
    25  C    2.490735   1.493258   2.779917   2.795681   0.000000
    26  H    2.154972   1.097195   2.518349   3.082679   2.138662
    27  H    2.158598   1.094200   3.084516   2.519648   2.145215
    28  C    3.153888   2.482299   2.948835   3.577889   1.355200
    29  H    3.064758   2.222871   3.501437   2.993191   1.086910
    30  H    3.966100   3.400044   3.740245   4.152255   2.028549
    31  H    3.116734   2.533709   2.719820   3.822249   2.011378
                   26         27         28         29         30
    26  H    0.000000
    27  H    1.773188   0.000000
    28  C    2.716623   3.373358   0.000000
    29  H    3.068409   2.461157   2.101631   0.000000
    30  H    3.780753   4.172577   1.105341   2.262521   0.000000
    31  H    2.342859   3.549423   1.099736   2.998117   2.070459
                   31
    31  H    0.000000
 Stoichiometry    C12H14N2O2S
 Framework group  C1[X(C12H14N2O2S)]
 Deg. of freedom    87
 Full point group                 C1      NOp   1
 Largest Abelian subgroup         C1      NOp   1
 Largest concise Abelian subgroup C1      NOp   1
                         Standard orientation:                         
 ---------------------------------------------------------------------
 Center     Atomic      Atomic             Coordinates (Angstroms)
 Number     Number       Type             X           Y           Z
 ---------------------------------------------------------------------
      1          6           0       -2.824690    2.182169   -0.166166
      2          6           0       -1.973639    1.069809   -0.106786
      3          6           0       -2.509060   -0.223717    0.058447
      4          6           0       -3.882590   -0.459934    0.175897
      5          6           0       -4.704207    0.653006    0.115542
      6          6           0       -4.184740    1.955563   -0.053653
      7          1           0       -2.418233    3.179714   -0.294758
      8          1           0       -4.285577   -1.457729    0.312219
      9          1           0       -5.777781    0.521788    0.202941
     10          1           0       -4.872442    2.793745   -0.094005
     11          7           0       -1.423614   -1.076471    0.066594
     12          7           0       -0.592191    1.005736   -0.186599
     13          6           0       -0.337309   -0.268168   -0.074644
     14          6           0       -1.451412   -2.521230    0.252572
     15          1           0       -0.589383   -2.965252   -0.245516
     16          1           0       -1.437176   -2.770945    1.315161
     17          1           0       -2.359455   -2.910585   -0.208653
     18         16           0        1.318780   -0.932904   -0.084651
     19          8           0        1.481558   -1.732308   -1.303778
     20          8           0        1.532067   -1.599123    1.204143
     21          6           0        2.346325    0.527116   -0.187390
     22          6           0        3.825758    0.093546   -0.225791
     23          1           0        2.115889    1.135247    0.690764
     24          1           0        2.047834    1.064089   -1.090518
     25          6           0        4.714781    1.291932   -0.283478
     26          1           0        4.035719   -0.494517    0.676393
     27          1           0        3.980111   -0.552981   -1.094958
     28          6           0        4.908687    2.074777    0.805615
     29          1           0        4.968896    1.694729   -1.260491
     30          1           0        5.319092    3.057903    0.510983
     31          1           0        4.606240    1.528633    1.710973
 ---------------------------------------------------------------------
 Rotational constants (GHZ):           0.9020104           0.2361868           0.1978890
 Standard basis: 6-31G(d) (6D, 7F)
 There are   287 symmetry adapted cartesian basis functions of A   symmetry.
 There are   287 symmetry adapted basis functions of A   symmetry.
   287 basis functions,   556 primitive gaussians,   287 cartesian basis functions
    66 alpha electrons       66 beta electrons
       nuclear repulsion energy      1339.5206612763 Hartrees.
 NAtoms=   31 NActive=   31 NUniq=   31 SFac= 1.00D+00 NAtFMM=   60 NAOKFM=F Big=F
 Integral buffers will be    131072 words long.
 Raffenetti 2 integral format.
 Two-electron integral symmetry is turned on.
 One-electron integrals computed using PRISM.
 NBasis=   287 RedAO= T EigKep=  3.81D-04  NBF=   287
 NBsUse=   287 1.00D-06 EigRej= -1.00D+00 NBFU=   287
 ExpMin= 1.17D-01 ExpMax= 2.19D+04 ExpMxC= 3.30D+03 IAcc=3 IRadAn=         5 AccDes= 0.00D+00
 Harris functional with IExCor= 1009 and IRadAn=       5 diagonalized for initial guess.
 HarFok:  IExCor= 1009 AccDes= 0.00D+00 IRadAn=         5 IDoV= 1 UseB2=F ITyADJ=14
 ICtDFT=  3500011 ScaDFX=  1.000000  1.000000  1.000000  1.000000
 FoFCou: FMM=F IPFlag=           0 FMFlag=      100000 FMFlg1=           0
         NFxFlg=           0 DoJE=T BraDBF=F KetDBF=T FulRan=T
         wScrn=  0.000000 ICntrl=       500 IOpCl=  0 I1Cent=   200000004 NGrid=           0
         NMat0=    1 NMatS0=      1 NMatT0=    0 NMatD0=    1 NMtDS0=    0 NMtDT0=    0
 Petite list used in FoFCou.
 Requested convergence on RMS density matrix=1.00D-08 within 128 cycles.
 Requested convergence on MAX density matrix=1.00D-06.
 Requested convergence on             energy=1.00D-06.
 No special actions if energy rises.
 Integral accuracy reduced to 1.0D-05 until final iterations.
 Initial convergence to 1.0D-05 achieved.  Increase integral accuracy.
 SCF Done:  E(RM062X) =  -1123.40533366     A.U. after   15 cycles
            NFock= 15  Conv=0.93D-08     -V/T= 2.0067

 **********************************************************************

            Population analysis using the SCF Density.

 **********************************************************************

 Orbital symmetries:
       Occupied  (A) (A) (A) (A) (A) (A) (A) (A) (A) (A) (A) (A)
                 (A) (A) (A) (A) (A) (A) (A) (A) (A) (A) (A) (A)
                 (A) (A) (A) (A) (A) (A) (A) (A) (A) (A) (A) (A)
                 (A) (A) (A) (A) (A) (A) (A) (A) (A) (A) (A) (A)
                 (A) (A) (A) (A) (A) (A) (A) (A) (A) (A) (A) (A)
                 (A) (A) (A) (A) (A) (A)
       Virtual   (A) (A) (A) (A) (A) (A) (A) (A) (A) (A) (A) (A)
                 (A) (A) (A) (A) (A) (A) (A) (A) (A) (A) (A) (A)
                 (A) (A) (A) (A) (A) (A) (A) (A) (A) (A) (A) (A)
                 (A) (A) (A) (A) (A) (A) (A) (A) (A) (A) (A) (A)
                 (A) (A) (A) (A) (A) (A) (A) (A) (A) (A) (A) (A)
                 (A) (A) (A) (A) (A) (A) (A) (A) (A) (A) (A) (A)
                 (A) (A) (A) (A) (A) (A) (A) (A) (A) (A) (A) (A)
                 (A) (A) (A) (A) (A) (A) (A) (A) (A) (A) (A) (A)
                 (A) (A) (A) (A) (A) (A) (A) (A) (A) (A) (A) (A)
                 (A) (A) (A) (A) (A) (A) (A) (A) (A) (A) (A) (A)
                 (A) (A) (A) (A) (A) (A) (A) (A) (A) (A) (A) (A)
                 (A) (A) (A) (A) (A) (A) (A) (A) (A) (A) (A) (A)
                 (A) (A) (A) (A) (A) (A) (A) (A) (A) (A) (A) (A)
                 (A) (A) (A) (A) (A) (A) (A) (A) (A) (A) (A) (A)
                 (A) (A) (A) (A) (A) (A) (A) (A) (A) (A) (A) (A)
                 (A) (A) (A) (A) (A) (A) (A) (A) (A) (A) (A) (A)
                 (A) (A) (A) (A) (A) (A) (A) (A) (A) (A) (A) (A)
                 (A) (A) (A) (A) (A) (A) (A) (A) (A) (A) (A) (A)
                 (A) (A) (A) (A) (A)
 The electronic state is 1-A.
 Alpha  occ. eigenvalues --  -90.14474 -19.63552 -19.63535 -14.84169 -14.77046
 Alpha  occ. eigenvalues --  -10.64611 -10.60314 -10.59915 -10.59225 -10.58415
 Alpha  occ. eigenvalues --  -10.56823 -10.56733 -10.56236 -10.56064 -10.55850
 Alpha  occ. eigenvalues --  -10.55664 -10.55379  -8.45965  -6.38100  -6.38089
 Alpha  occ. eigenvalues --   -6.38016  -1.22888  -1.15737  -1.11561  -1.02167
 Alpha  occ. eigenvalues --   -0.96071  -0.93150  -0.87610  -0.86054  -0.84474
 Alpha  occ. eigenvalues --   -0.82742  -0.78512  -0.73767  -0.70040  -0.68478
 Alpha  occ. eigenvalues --   -0.65844  -0.63795  -0.60862  -0.59371  -0.59114
 Alpha  occ. eigenvalues --   -0.57462  -0.56600  -0.55389  -0.54044  -0.52331
 Alpha  occ. eigenvalues --   -0.51488  -0.51291  -0.51116  -0.49242  -0.48867
 Alpha  occ. eigenvalues --   -0.47303  -0.46476  -0.43609  -0.43228  -0.42984
 Alpha  occ. eigenvalues --   -0.42478  -0.41637  -0.39868  -0.39273  -0.37513
 Alpha  occ. eigenvalues --   -0.37432  -0.36968  -0.35290  -0.31545  -0.29016
 Alpha  occ. eigenvalues --   -0.28766
 Alpha virt. eigenvalues --   -0.00523   0.03339   0.04561   0.06892   0.08899
 Alpha virt. eigenvalues --    0.12332   0.12827   0.13904   0.14333   0.15399
 Alpha virt. eigenvalues --    0.15690   0.16758   0.17213   0.18499   0.19222
 Alpha virt. eigenvalues --    0.19370   0.19950   0.20395   0.21075   0.22270
 Alpha virt. eigenvalues --    0.22413   0.23260   0.23892   0.25302   0.26745
 Alpha virt. eigenvalues --    0.29460   0.30458   0.30565   0.32832   0.34332
 Alpha virt. eigenvalues --    0.35339   0.37168   0.37470   0.41266   0.42550
 Alpha virt. eigenvalues --    0.45410   0.45877   0.46602   0.50024   0.50242
 Alpha virt. eigenvalues --    0.53508   0.54173   0.55248   0.56673   0.57124
 Alpha virt. eigenvalues --    0.57575   0.58782   0.59295   0.61183   0.62131
 Alpha virt. eigenvalues --    0.63128   0.64143   0.64638   0.64806   0.65691
 Alpha virt. eigenvalues --    0.66173   0.67713   0.68012   0.69722   0.70204
 Alpha virt. eigenvalues --    0.71408   0.72726   0.73011   0.75110   0.76045
 Alpha virt. eigenvalues --    0.76576   0.79572   0.81778   0.82251   0.82654
 Alpha virt. eigenvalues --    0.83821   0.85458   0.86905   0.87374   0.88800
 Alpha virt. eigenvalues --    0.89384   0.90204   0.90572   0.90959   0.91852
 Alpha virt. eigenvalues --    0.92433   0.92589   0.93534   0.94280   0.95065
 Alpha virt. eigenvalues --    0.96439   0.97000   0.97584   0.98351   0.99154
 Alpha virt. eigenvalues --    0.99730   1.01521   1.01665   1.02886   1.03951
 Alpha virt. eigenvalues --    1.04587   1.06862   1.08743   1.10254   1.12752
 Alpha virt. eigenvalues --    1.14420   1.15106   1.17587   1.19754   1.21402
 Alpha virt. eigenvalues --    1.21757   1.23753   1.24916   1.26619   1.29637
 Alpha virt. eigenvalues --    1.30512   1.32116   1.32624   1.34610   1.36370
 Alpha virt. eigenvalues --    1.37337   1.38147   1.43097   1.44529   1.46364
 Alpha virt. eigenvalues --    1.47211   1.48380   1.49411   1.50458   1.52348
 Alpha virt. eigenvalues --    1.53968   1.54513   1.55277   1.62557   1.64012
 Alpha virt. eigenvalues --    1.66187   1.71196   1.72817   1.74188   1.77466
 Alpha virt. eigenvalues --    1.83012   1.84146   1.85149   1.85489   1.86100
 Alpha virt. eigenvalues --    1.86969   1.87253   1.87978   1.89659   1.91831
 Alpha virt. eigenvalues --    1.93330   1.94127   1.95655   1.96729   1.99098
 Alpha virt. eigenvalues --    1.99988   2.01472   2.02883   2.04088   2.04856
 Alpha virt. eigenvalues --    2.05441   2.05754   2.11041   2.11786   2.13473
 Alpha virt. eigenvalues --    2.14847   2.16607   2.17663   2.18834   2.20792
 Alpha virt. eigenvalues --    2.22651   2.24690   2.26010   2.27204   2.27429
 Alpha virt. eigenvalues --    2.28005   2.29621   2.30290   2.32368   2.36259
 Alpha virt. eigenvalues --    2.36615   2.37697   2.40024   2.41419   2.45030
 Alpha virt. eigenvalues --    2.46633   2.53176   2.54343   2.56233   2.56679
 Alpha virt. eigenvalues --    2.62566   2.65390   2.66580   2.69175   2.69731
 Alpha virt. eigenvalues --    2.70315   2.73790   2.77519   2.78864   2.79886
 Alpha virt. eigenvalues --    2.82243   2.85397   2.87154   2.88163   2.95152
 Alpha virt. eigenvalues --    3.06377   3.13592   3.24082   3.46118   3.87939
 Alpha virt. eigenvalues --    3.96019   4.07674   4.10590   4.14295   4.14625
 Alpha virt. eigenvalues --    4.18241   4.19565   4.23144   4.27253   4.33331
 Alpha virt. eigenvalues --    4.37168   4.39806   4.44182   4.47804   4.50761
 Alpha virt. eigenvalues --    4.79614
          Condensed to atoms (all electrons):
               1          2          3          4          5          6
     1  C    4.953172   0.534807  -0.061282  -0.041046  -0.032573   0.547234
     2  C    0.534807   4.674107   0.499542  -0.044488  -0.040064  -0.016774
     3  C   -0.061282   0.499542   4.766728   0.493448  -0.003146  -0.041481
     4  C   -0.041046  -0.044488   0.493448   4.987189   0.544433  -0.040470
     5  C   -0.032573  -0.040064  -0.003146   0.544433   4.883978   0.526372
     6  C    0.547234  -0.016774  -0.041481  -0.040470   0.526372   4.902875
     7  H    0.357225  -0.029867   0.005914   0.000143   0.003997  -0.040502
     8  H    0.000300   0.003467  -0.033063   0.358402  -0.034236   0.003595
     9  H    0.003503   0.001015   0.002308  -0.035575   0.368560  -0.035144
    10  H   -0.034493   0.002530   0.000818   0.004018  -0.037181   0.369742
    11  N    0.010886  -0.040897   0.268970  -0.087383   0.005255   0.000006
    12  N   -0.071957   0.376564  -0.077648   0.011307  -0.000341   0.004625
    13  C    0.004698  -0.102971  -0.089582   0.006967  -0.000058  -0.000122
    14  C   -0.000093   0.007165  -0.035000  -0.001198   0.000021   0.000001
    15  H    0.000004  -0.000135   0.002647   0.000043  -0.000001   0.000000
    16  H   -0.000001  -0.000206   0.000075   0.000788  -0.000002  -0.000001
    17  H   -0.000004   0.000045  -0.005226   0.002738   0.000066  -0.000003
    18  S   -0.000500  -0.004996   0.001785  -0.000188   0.000003   0.000006
    19  O   -0.000000  -0.000222   0.000054   0.000001  -0.000000  -0.000000
    20  O   -0.000000  -0.000175  -0.000189  -0.000001  -0.000000  -0.000000
    21  C    0.000010  -0.000051  -0.000221  -0.000001  -0.000000   0.000000
    22  C   -0.000000   0.000004   0.000001  -0.000000   0.000000   0.000000
    23  H   -0.000003  -0.000042   0.000002  -0.000000   0.000000  -0.000000
    24  H   -0.000006  -0.000055   0.000026  -0.000000   0.000000  -0.000000
    25  C    0.000000  -0.000000  -0.000000  -0.000000  -0.000000   0.000000
    26  H   -0.000000   0.000000   0.000000   0.000000   0.000000   0.000000
    27  H    0.000000   0.000000  -0.000000   0.000000   0.000000   0.000000
    28  C    0.000000  -0.000000  -0.000000   0.000000  -0.000000   0.000000
    29  H   -0.000000   0.000000   0.000000   0.000000   0.000000  -0.000000
    30  H    0.000000  -0.000000  -0.000000  -0.000000  -0.000000   0.000000
    31  H   -0.000000  -0.000000   0.000000   0.000000  -0.000000   0.000000
               7          8          9         10         11         12
     1  C    0.357225   0.000300   0.003503  -0.034493   0.010886  -0.071957
     2  C   -0.029867   0.003467   0.001015   0.002530  -0.040897   0.376564
     3  C    0.005914  -0.033063   0.002308   0.000818   0.268970  -0.077648
     4  C    0.000143   0.358402  -0.035575   0.004018  -0.087383   0.011307
     5  C    0.003997  -0.034236   0.368560  -0.037181   0.005255  -0.000341
     6  C   -0.040502   0.003595  -0.035144   0.369742   0.000006   0.004625
     7  H    0.526866   0.000014  -0.000127  -0.004253  -0.000106  -0.001701
     8  H    0.000014   0.534790  -0.003988  -0.000138  -0.006204  -0.000127
     9  H   -0.000127  -0.003988   0.535089  -0.004330  -0.000111   0.000003
    10  H   -0.004253  -0.000138  -0.004330   0.535908   0.000004  -0.000087
    11  N   -0.000106  -0.006204  -0.000111   0.000004   7.090148  -0.098738
    12  N   -0.001701  -0.000127   0.000003  -0.000087  -0.098738   6.944448
    13  C   -0.000006  -0.000195   0.000004   0.000005   0.325688   0.443948
    14  C    0.000001   0.002313  -0.000000  -0.000000   0.242109   0.004092
    15  H   -0.000000  -0.000022  -0.000000  -0.000000  -0.028675   0.000125
    16  H   -0.000000  -0.000032  -0.000000   0.000000  -0.039945   0.000011
    17  H    0.000000   0.001865   0.000003  -0.000000  -0.034324  -0.000149
    18  S    0.000004   0.000001  -0.000000  -0.000000  -0.028681  -0.009440
    19  O    0.000000   0.000000   0.000000   0.000000   0.000393   0.000831
    20  O    0.000000  -0.000000   0.000000   0.000000  -0.002357   0.000895
    21  C   -0.000000   0.000000   0.000000  -0.000000   0.003485  -0.006257
    22  C    0.000000   0.000000  -0.000000  -0.000000  -0.000017   0.000515
    23  H    0.000001   0.000000   0.000000  -0.000000  -0.000031   0.002183
    24  H    0.000002   0.000000   0.000000  -0.000000   0.000013   0.003095
    25  C   -0.000000   0.000000   0.000000   0.000000   0.000000  -0.000003
    26  H   -0.000000  -0.000000  -0.000000  -0.000000  -0.000001  -0.000010
    27  H   -0.000000  -0.000000  -0.000000  -0.000000  -0.000001  -0.000010
    28  C   -0.000000  -0.000000   0.000000   0.000000   0.000000  -0.000003
    29  H    0.000000  -0.000000  -0.000000  -0.000000  -0.000000   0.000000
    30  H   -0.000000  -0.000000   0.000000   0.000000   0.000000  -0.000000
    31  H    0.000000  -0.000000  -0.000000  -0.000000  -0.000000   0.000000
              13         14         15         16         17         18
     1  C    0.004698  -0.000093   0.000004  -0.000001  -0.000004  -0.000500
     2  C   -0.102971   0.007165  -0.000135  -0.000206   0.000045  -0.004996
     3  C   -0.089582  -0.035000   0.002647   0.000075  -0.005226   0.001785
     4  C    0.006967  -0.001198   0.000043   0.000788   0.002738  -0.000188
     5  C   -0.000058   0.000021  -0.000001  -0.000002   0.000066   0.000003
     6  C   -0.000122   0.000001   0.000000  -0.000001  -0.000003   0.000006
     7  H   -0.000006   0.000001  -0.000000  -0.000000   0.000000   0.000004
     8  H   -0.000195   0.002313  -0.000022  -0.000032   0.001865   0.000001
     9  H    0.000004  -0.000000  -0.000000  -0.000000   0.000003  -0.000000
    10  H    0.000005  -0.000000  -0.000000   0.000000  -0.000000  -0.000000
    11  N    0.325688   0.242109  -0.028675  -0.039945  -0.034324  -0.028681
    12  N    0.443948   0.004092   0.000125   0.000011  -0.000149  -0.009440
    13  C    5.306217  -0.039913  -0.006867  -0.001168   0.002693   0.085124
    14  C   -0.039913   5.046277   0.375691   0.383444   0.375449   0.005982
    15  H   -0.006867   0.375691   0.442575  -0.023225  -0.021249   0.010135
    16  H   -0.001168   0.383444  -0.023225   0.496128  -0.031412   0.000277
    17  H    0.002693   0.375449  -0.021249  -0.031412   0.516328  -0.000001
    18  S    0.085124   0.005982   0.010135   0.000277  -0.000001  13.728767
    19  O   -0.062894  -0.006278   0.008563   0.000099  -0.000020   0.447855
    20  O   -0.061639   0.004356  -0.003491   0.000162   0.000136   0.455952
    21  C   -0.049357  -0.000120   0.000087   0.000007   0.000002   0.181310
    22  C    0.001758   0.000001   0.000001   0.000000   0.000000  -0.019725
    23  H   -0.000115   0.000007  -0.000007   0.000000   0.000000  -0.006895
    24  H   -0.000383  -0.000007   0.000004  -0.000000  -0.000000  -0.006320
    25  C   -0.000019  -0.000000   0.000000   0.000000  -0.000000   0.001049
    26  H    0.000103  -0.000000   0.000001   0.000000  -0.000000   0.001028
    27  H    0.000067   0.000001  -0.000001  -0.000000   0.000000   0.001354
    28  C   -0.000002  -0.000000   0.000000  -0.000000   0.000000   0.000243
    29  H    0.000000   0.000000  -0.000000   0.000000   0.000000  -0.000054
    30  H    0.000000  -0.000000  -0.000000  -0.000000  -0.000000  -0.000002
    31  H    0.000000   0.000000  -0.000000  -0.000000   0.000000  -0.000055
              19         20         21         22         23         24
     1  C   -0.000000  -0.000000   0.000010  -0.000000  -0.000003  -0.000006
     2  C   -0.000222  -0.000175  -0.000051   0.000004  -0.000042  -0.000055
     3  C    0.000054  -0.000189  -0.000221   0.000001   0.000002   0.000026
     4  C    0.000001  -0.000001  -0.000001  -0.000000  -0.000000  -0.000000
     5  C   -0.000000  -0.000000  -0.000000   0.000000   0.000000   0.000000
     6  C   -0.000000  -0.000000   0.000000   0.000000  -0.000000  -0.000000
     7  H    0.000000   0.000000  -0.000000   0.000000   0.000001   0.000002
     8  H    0.000000  -0.000000   0.000000   0.000000   0.000000   0.000000
     9  H    0.000000   0.000000   0.000000  -0.000000   0.000000   0.000000
    10  H    0.000000   0.000000  -0.000000  -0.000000  -0.000000  -0.000000
    11  N    0.000393  -0.002357   0.003485  -0.000017  -0.000031   0.000013
    12  N    0.000831   0.000895  -0.006257   0.000515   0.002183   0.003095
    13  C   -0.062894  -0.061639  -0.049357   0.001758  -0.000115  -0.000383
    14  C   -0.006278   0.004356  -0.000120   0.000001   0.000007  -0.000007
    15  H    0.008563  -0.003491   0.000087   0.000001  -0.000007   0.000004
    16  H    0.000099   0.000162   0.000007   0.000000   0.000000  -0.000000
    17  H   -0.000020   0.000136   0.000002   0.000000   0.000000  -0.000000
    18  S    0.447855   0.455952   0.181310  -0.019725  -0.006895  -0.006320
    19  O    8.276176  -0.050979  -0.060362  -0.003511   0.001577  -0.000899
    20  O   -0.050979   8.271701  -0.059881  -0.004473  -0.000999   0.001587
    21  C   -0.060362  -0.059881   5.622829   0.316260   0.345721   0.346556
    22  C   -0.003511  -0.004473   0.316260   5.112468  -0.026881  -0.027900
    23  H    0.001577  -0.000999   0.345721  -0.026881   0.469268  -0.020460
    24  H   -0.000899   0.001587   0.346556  -0.027900  -0.020460   0.467243
    25  C   -0.000053  -0.000071  -0.050446   0.378793  -0.003541  -0.002463
    26  H   -0.000507   0.006940  -0.043623   0.380121  -0.002590   0.004178
    27  H    0.006528  -0.000367  -0.045167   0.381375   0.004065  -0.002890
    28  C   -0.000003  -0.000000  -0.011907  -0.053625   0.004621   0.000262
    29  H    0.000005  -0.000001   0.000745  -0.047581   0.000107   0.001388
    30  H    0.000000  -0.000000   0.000049   0.004974  -0.000180  -0.000011
    31  H    0.000000  -0.000004  -0.000364  -0.008808   0.001089   0.000123
              25         26         27         28         29         30
     1  C    0.000000  -0.000000   0.000000   0.000000  -0.000000   0.000000
     2  C   -0.000000   0.000000   0.000000  -0.000000   0.000000  -0.000000
     3  C   -0.000000   0.000000  -0.000000  -0.000000   0.000000  -0.000000
     4  C   -0.000000   0.000000   0.000000   0.000000   0.000000  -0.000000
     5  C   -0.000000   0.000000   0.000000  -0.000000   0.000000  -0.000000
     6  C    0.000000   0.000000   0.000000   0.000000  -0.000000   0.000000
     7  H   -0.000000  -0.000000  -0.000000  -0.000000   0.000000  -0.000000
     8  H    0.000000  -0.000000  -0.000000  -0.000000  -0.000000  -0.000000
     9  H    0.000000  -0.000000  -0.000000   0.000000  -0.000000   0.000000
    10  H    0.000000  -0.000000  -0.000000   0.000000  -0.000000   0.000000
    11  N    0.000000  -0.000001  -0.000001   0.000000  -0.000000   0.000000
    12  N   -0.000003  -0.000010  -0.000010  -0.000003   0.000000  -0.000000
    13  C   -0.000019   0.000103   0.000067  -0.000002   0.000000   0.000000
    14  C   -0.000000  -0.000000   0.000001  -0.000000   0.000000  -0.000000
    15  H    0.000000   0.000001  -0.000001   0.000000  -0.000000  -0.000000
    16  H    0.000000   0.000000  -0.000000  -0.000000   0.000000  -0.000000
    17  H   -0.000000  -0.000000   0.000000   0.000000   0.000000  -0.000000
    18  S    0.001049   0.001028   0.001354   0.000243  -0.000054  -0.000002
    19  O   -0.000053  -0.000507   0.006528  -0.000003   0.000005   0.000000
    20  O   -0.000071   0.006940  -0.000367  -0.000000  -0.000001  -0.000000
    21  C   -0.050446  -0.043623  -0.045167  -0.011907   0.000745   0.000049
    22  C    0.378793   0.380121   0.381375  -0.053625  -0.047581   0.004974
    23  H   -0.003541  -0.002590   0.004065   0.004621   0.000107  -0.000180
    24  H   -0.002463   0.004178  -0.002890   0.000262   0.001388  -0.000011
    25  C    4.927463  -0.036627  -0.031712   0.643812   0.383722  -0.040076
    26  H   -0.036627   0.506781  -0.024035  -0.005145   0.003602   0.000045
    27  H   -0.031712  -0.024035   0.505269   0.004409  -0.003656  -0.000186
    28  C    0.643812  -0.005145   0.004409   5.054975  -0.043991   0.377032
    29  H    0.383722   0.003602  -0.003656  -0.043991   0.545063  -0.007118
    30  H   -0.040076   0.000045  -0.000186   0.377032  -0.007118   0.503325
    31  H   -0.057950   0.005694   0.000096   0.382800   0.005683  -0.016854
              31
     1  C   -0.000000
     2  C   -0.000000
     3  C    0.000000
     4  C    0.000000
     5  C   -0.000000
     6  C    0.000000
     7  H    0.000000
     8  H   -0.000000
     9  H   -0.000000
    10  H   -0.000000
    11  N   -0.000000
    12  N    0.000000
    13  C    0.000000
    14  C    0.000000
    15  H   -0.000000
    16  H   -0.000000
    17  H    0.000000
    18  S   -0.000055
    19  O    0.000000
    20  O   -0.000004
    21  C   -0.000364
    22  C   -0.008808
    23  H    0.001089
    24  H    0.000123
    25  C   -0.057950
    26  H    0.005694
    27  H    0.000096
    28  C    0.382800
    29  H    0.005683
    30  H   -0.016854
    31  H    0.516675
 Mulliken charges:
               1
     1  C   -0.169881
     2  C    0.181699
     3  C    0.304521
     4  C   -0.159127
     5  C   -0.185083
     6  C   -0.179961
     7  H    0.182395
     8  H    0.173259
     9  H    0.168790
    10  H    0.167458
    11  N   -0.579485
    12  N   -0.526172
    13  C    0.238016
    14  C   -0.364298
    15  H    0.243797
    16  H    0.215002
    17  H    0.193063
    18  S    1.155982
    19  O   -0.556354
    20  O   -0.557103
    21  C   -0.489303
    22  C   -0.383751
    23  H    0.233104
    24  H    0.236918
    25  C   -0.111879
    26  H    0.204046
    27  H    0.204862
    28  C   -0.353477
    29  H    0.162086
    30  H    0.179003
    31  H    0.171874
 Sum of Mulliken charges =  -0.00000
 Mulliken charges with hydrogens summed into heavy atoms:
               1
     1  C    0.012514
     2  C    0.181699
     3  C    0.304521
     4  C    0.014132
     5  C   -0.016293
     6  C   -0.012503
    11  N   -0.579485
    12  N   -0.526172
    13  C    0.238016
    14  C    0.287564
    18  S    1.155982
    19  O   -0.556354
    20  O   -0.557103
    21  C   -0.019282
    22  C    0.025156
    25  C    0.050206
    28  C   -0.002599
 Electronic spatial extent (au):  <R**2>=           5410.3830
 Charge=             -0.0000 electrons
 Dipole moment (field-independent basis, Debye):
    X=             -2.1904    Y=              1.2359    Z=              0.1084  Tot=              2.5174
 Quadrupole moment (field-independent basis, Debye-Ang):
   XX=            -92.1727   YY=           -102.1110   ZZ=           -112.5994
   XY=             11.7117   XZ=             -2.7548   YZ=             -2.2707
 Traceless Quadrupole moment (field-independent basis, Debye-Ang):
   XX=             10.1216   YY=              0.1834   ZZ=            -10.3050
   XY=             11.7117   XZ=             -2.7548   YZ=             -2.2707
 Octapole moment (field-independent basis, Debye-Ang**2):
  XXX=            -38.8444  YYY=             -7.4011  ZZZ=              0.7238  XYY=            -24.7252
  XXY=             15.3068  XXZ=             -6.9741  XZZ=             14.0822  YZZ=              1.2795
  YYZ=             -0.4714  XYZ=             -0.9955
 Hexadecapole moment (field-independent basis, Debye-Ang**3):
 XXXX=          -5452.0914 YYYY=          -1297.5383 ZZZZ=           -292.6269 XXXY=             14.3963
 XXXZ=            -84.5437 YYYX=             35.9152 YYYZ=            -18.5842 ZZZX=             -4.9306
 ZZZY=             -7.2175 XXYY=          -1060.2243 XXZZ=          -1031.6851 YYZZ=           -301.4997
 XXYZ=            -30.9630 YYXZ=             -8.2554 ZZXY=             26.7867
 N-N= 1.339520661276D+03 E-N=-5.309791331672D+03  KE= 1.115913932299D+03
 Calling FoFJK, ICntrl=      2127 FMM=F ISym2X=0 I1Cent= 0 IOpClX= 0 NMat=1 NMatS=1 NMatT=0.
 ***** Axes restored to original set *****
 -------------------------------------------------------------------
 Center     Atomic                   Forces (Hartrees/Bohr)
 Number     Number              X              Y              Z
 -------------------------------------------------------------------
      1        6          -0.000517564   -0.001059402    0.000375151
      2        6           0.000416057    0.000649278   -0.000272751
      3        6          -0.001087256    0.000405129    0.000200350
      4        6           0.001135743    0.000849394   -0.000493758
      5        6           0.000518682    0.000580913   -0.000263145
      6        6          -0.000224723   -0.001085582    0.000293756
      7        1           0.000207873   -0.000470709    0.000066135
      8        1          -0.000152217   -0.000099461    0.000110030
      9        1          -0.000105917    0.000066166    0.000003365
     10        1          -0.000096240   -0.000012879    0.000028465
     11        7          -0.001897364   -0.001870873    0.000622508
     12        7          -0.000665489   -0.001702566    0.000635356
     13        6           0.003177816    0.003917032   -0.001360029
     14        6           0.001012968    0.001520449   -0.000567230
     15        1           0.000729040   -0.000094162    0.000144927
     16        1           0.000510738   -0.000293999    0.000318021
     17        1          -0.000654585    0.000226743   -0.000403939
     18       16           0.000028804   -0.013488299    0.001482619
     19        8          -0.000195670    0.004897303    0.001505703
     20        8          -0.000575240    0.004340640   -0.002909072
     21        6           0.003417827    0.000732106   -0.001819329
     22        6          -0.002915795   -0.013651177    0.001222856
     23        1           0.000816975    0.000228290   -0.000903161
     24        1          -0.000338546    0.001032702    0.000241881
     25        6          -0.003520336    0.032977390    0.010733431
     26        1          -0.000629649   -0.000686401   -0.000708964
     27        1          -0.001240577   -0.001718616    0.001778158
     28        6          -0.011697219   -0.036440650   -0.042531795
     29        1          -0.000461857   -0.003681636   -0.002611919
     30        1           0.000938050   -0.003218755    0.032329435
     31        1           0.014065669    0.027151630    0.002752947
 -------------------------------------------------------------------
 Cartesian Forces:  Max     0.042531795 RMS     0.008689512

 GradGradGradGradGradGradGradGradGradGradGradGradGradGradGradGradGradGrad
 Berny optimization.
 FormGI is forming the generalized inverse of G from B-inverse, IUseBI=4.
 Internal  Forces:  Max     0.039450686 RMS     0.004594591
 Search for a local minimum.
 Step number   1 out of a maximum of  173
 All quantities printed in internal units (Hartrees-Bohrs-Radians)
 Mixed Optimization -- RFO/linear search
 Second derivative matrix not updated -- first step.
 ITU=  0
     Eigenvalues ---    0.00230   0.00525   0.00575   0.00855   0.00939
     Eigenvalues ---    0.01494   0.01564   0.01742   0.01990   0.02004
     Eigenvalues ---    0.02031   0.02062   0.02103   0.02125   0.02193
     Eigenvalues ---    0.02203   0.02224   0.02402   0.02681   0.02681
     Eigenvalues ---    0.04013   0.04392   0.04843   0.05557   0.07503
     Eigenvalues ---    0.07759   0.07774   0.08283   0.08568   0.08943
     Eigenvalues ---    0.11640   0.12200   0.12575   0.15523   0.16000
     Eigenvalues ---    0.16000   0.16000   0.16000   0.16000   0.16000
     Eigenvalues ---    0.16000   0.16000   0.16000   0.17959   0.21924
     Eigenvalues ---    0.21947   0.22000   0.22111   0.22594   0.24525
     Eigenvalues ---    0.24948   0.24994   0.24999   0.24999   0.25000
     Eigenvalues ---    0.27059   0.27373   0.28331   0.33095   0.33098
     Eigenvalues ---    0.33711   0.33994   0.34332   0.34498   0.34550
     Eigenvalues ---    0.34625   0.34772   0.34800   0.35172   0.35386
     Eigenvalues ---    0.35403   0.35418   0.35432   0.37349   0.37915
     Eigenvalues ---    0.42430   0.42771   0.44519   0.45236   0.47326
     Eigenvalues ---    0.47923   0.48208   0.50849   0.53930   0.63045
     Eigenvalues ---    0.88770   0.88974
 RFO step:  Lambda=-2.06604086D-02 EMin= 2.30000000D-03
 Linear search not attempted -- first point.
 Iteration  1 RMS(Cart)=  0.05100073 RMS(Int)=  0.00402415
 Iteration  2 RMS(Cart)=  0.00461588 RMS(Int)=  0.00065838
 Iteration  3 RMS(Cart)=  0.00005519 RMS(Int)=  0.00065654
 Iteration  4 RMS(Cart)=  0.00000002 RMS(Int)=  0.00065654
 Variable       Old X    -DE/DX   Delta X   Delta X   Delta X     New X
                                 (Linear)    (Quad)   (Total)
    R1        2.64910  -0.00134   0.00000  -0.00285  -0.00285   2.64625
    R2        2.61421  -0.00026   0.00000  -0.00056  -0.00056   2.61365
    R3        2.05002  -0.00026   0.00000  -0.00070  -0.00070   2.04932
    R4        2.66390  -0.00024   0.00000  -0.00029  -0.00029   2.66362
    R5        2.61771  -0.00001   0.00000  -0.00009  -0.00009   2.61762
    R6        2.64304  -0.00082   0.00000  -0.00166  -0.00166   2.64138
    R7        2.60854  -0.00006   0.00000   0.00004   0.00004   2.60858
    R8        2.61666  -0.00044   0.00000  -0.00086  -0.00086   2.61581
    R9        2.04979   0.00020   0.00000   0.00052   0.00052   2.05031
   R10        2.66922  -0.00135   0.00000  -0.00300  -0.00300   2.66622
   R11        2.05052   0.00011   0.00000   0.00030   0.00030   2.05082
   R12        2.05026   0.00003   0.00000   0.00007   0.00007   2.05033
   R13        2.57264   0.00034   0.00000   0.00055   0.00055   2.57319
   R14        2.75323  -0.00179   0.00000  -0.00455  -0.00455   2.74868
   R15        2.46414  -0.00204   0.00000  -0.00315  -0.00315   2.46099
   R16        3.37230  -0.00096   0.00000  -0.00328  -0.00328   3.36903
   R17        2.06001   0.00046   0.00000   0.00124   0.00124   2.06125
   R18        2.06288   0.00037   0.00000   0.00100   0.00100   2.06388
   R19        2.06047   0.00069   0.00000   0.00187   0.00187   2.06234
   R20        2.77205  -0.00438   0.00000  -0.00482  -0.00482   2.76723
   R21        2.77109  -0.00426   0.00000  -0.00468  -0.00468   2.76642
   R22        3.37942   0.00044   0.00000   0.00152   0.00152   3.38094
   R23        2.91421  -0.00515   0.00000  -0.01696  -0.01696   2.89726
   R24        2.06498  -0.00048   0.00000  -0.00130  -0.00130   2.06368
   R25        2.06411   0.00029   0.00000   0.00080   0.00080   2.06491
   R26        2.82185   0.00965   0.00000   0.02746   0.02746   2.84930
   R27        2.07340  -0.00041   0.00000  -0.00115  -0.00115   2.07225
   R28        2.06774   0.00011   0.00000   0.00029   0.00029   2.06803
   R29        2.56096  -0.01192   0.00000  -0.02128  -0.02128   2.53968
   R30        2.05396   0.00180   0.00000   0.00484   0.00484   2.05880
   R31        2.08879  -0.01577   0.00000  -0.04485  -0.04485   2.04394
   R32        2.07820  -0.00951   0.00000  -0.02658  -0.02658   2.05162
    A1        2.05266   0.00048   0.00000   0.00188   0.00188   2.05454
    A2        2.10275  -0.00070   0.00000  -0.00348  -0.00348   2.09927
    A3        2.12778   0.00022   0.00000   0.00160   0.00160   2.12937
    A4        2.09728  -0.00053   0.00000  -0.00198  -0.00198   2.09530
    A5        2.26490   0.00005   0.00000   0.00004   0.00004   2.26494
    A6        1.92100   0.00047   0.00000   0.00194   0.00194   1.92294
    A7        2.13864   0.00009   0.00000   0.00022   0.00022   2.13886
    A8        1.84304  -0.00074   0.00000  -0.00216  -0.00216   1.84088
    A9        2.30150   0.00064   0.00000   0.00194   0.00194   2.30344
   A10        2.03008   0.00024   0.00000   0.00118   0.00118   2.03126
   A11        2.13030  -0.00005   0.00000  -0.00022  -0.00022   2.13007
   A12        2.12279  -0.00018   0.00000  -0.00096  -0.00096   2.12184
   A13        2.12728  -0.00032   0.00000  -0.00134  -0.00134   2.12593
   A14        2.07871   0.00022   0.00000   0.00097   0.00097   2.07968
   A15        2.07719   0.00011   0.00000   0.00037   0.00037   2.07757
   A16        2.12042   0.00004   0.00000   0.00005   0.00005   2.12046
   A17        2.08701   0.00008   0.00000   0.00053   0.00053   2.08754
   A18        2.07575  -0.00012   0.00000  -0.00057  -0.00057   2.07518
   A19        1.83387   0.00005   0.00000   0.00044   0.00044   1.83430
   A20        2.21224   0.00175   0.00000   0.00635   0.00635   2.21859
   A21        2.23602  -0.00180   0.00000  -0.00676  -0.00677   2.22926
   A22        1.80819  -0.00014   0.00000  -0.00116  -0.00116   1.80703
   A23        2.01860   0.00036   0.00000   0.00094   0.00094   2.01954
   A24        2.11755  -0.00250   0.00000  -0.00904  -0.00904   2.10852
   A25        2.14697   0.00214   0.00000   0.00810   0.00810   2.15507
   A26        1.90763  -0.00037   0.00000  -0.00258  -0.00259   1.90504
   A27        1.92927   0.00027   0.00000   0.00126   0.00126   1.93053
   A28        1.89230  -0.00042   0.00000  -0.00160  -0.00160   1.89070
   A29        1.91907  -0.00032   0.00000  -0.00321  -0.00321   1.91586
   A30        1.89634   0.00049   0.00000   0.00311   0.00311   1.89945
   A31        1.91870   0.00036   0.00000   0.00305   0.00305   1.92175
   A32        1.88666   0.00009   0.00000  -0.00274  -0.00278   1.88388
   A33        1.87474   0.00002   0.00000  -0.00440  -0.00449   1.87024
   A34        1.80230  -0.00275   0.00000  -0.01787  -0.01797   1.78432
   A35        2.05635   0.00210   0.00000   0.02153   0.02153   2.07789
   A36        1.91071   0.00022   0.00000   0.00088   0.00080   1.91151
   A37        1.91542  -0.00033   0.00000  -0.00281  -0.00293   1.91249
   A38        1.89982  -0.00338   0.00000  -0.01371  -0.01369   1.88613
   A39        1.86191   0.00196   0.00000   0.01102   0.01099   1.87290
   A40        1.86695   0.00081   0.00000   0.00269   0.00270   1.86965
   A41        1.95928   0.00018   0.00000  -0.00200  -0.00196   1.95732
   A42        1.96036   0.00142   0.00000   0.00714   0.00715   1.96752
   A43        1.91054  -0.00096   0.00000  -0.00478  -0.00480   1.90574
   A44        1.92462  -0.00388   0.00000  -0.01496  -0.01493   1.90969
   A45        1.88998   0.00178   0.00000   0.00872   0.00877   1.89875
   A46        1.89783  -0.00035   0.00000  -0.00831  -0.00825   1.88957
   A47        1.92620   0.00130   0.00000   0.00939   0.00940   1.93560
   A48        1.93855   0.00261   0.00000   0.01532   0.01523   1.95378
   A49        1.88544  -0.00143   0.00000  -0.01039  -0.01045   1.87499
   A50        2.11499   0.00977   0.00000   0.04927   0.04474   2.15973
   A51        2.06159  -0.00677   0.00000  -0.01950  -0.02420   2.03739
   A52        2.06560  -0.00101   0.00000   0.01699   0.01259   2.07819
   A53        1.93125   0.01865   0.00000   0.10323   0.10282   2.03407
   A54        1.91280   0.02080   0.00000   0.11514   0.11472   2.02752
   A55        2.43913  -0.03945   0.00000  -0.21837  -0.21878   2.22035
    D1        0.00300  -0.00001   0.00000  -0.00023  -0.00023   0.00277
    D2       -3.13784   0.00001   0.00000  -0.00006  -0.00006  -3.13790
    D3       -3.13992  -0.00000   0.00000  -0.00003  -0.00003  -3.13995
    D4        0.00242   0.00001   0.00000   0.00014   0.00014   0.00256
    D5        0.00032   0.00001   0.00000   0.00017   0.00017   0.00049
    D6        3.14017   0.00000   0.00000   0.00003   0.00003   3.14020
    D7       -3.13992   0.00000   0.00000  -0.00003  -0.00003  -3.13995
    D8       -0.00007  -0.00000   0.00000  -0.00017  -0.00017  -0.00024
    D9       -0.00574  -0.00000   0.00000   0.00010   0.00010  -0.00565
   D10        3.13408  -0.00001   0.00000  -0.00035  -0.00035   3.13373
   D11        3.13524  -0.00002   0.00000  -0.00004  -0.00004   3.13520
   D12       -0.00813  -0.00003   0.00000  -0.00049  -0.00049  -0.00861
   D13       -3.14080   0.00001   0.00000   0.00034   0.00034  -3.14046
   D14        0.00148   0.00003   0.00000   0.00050   0.00050   0.00198
   D15        0.00473   0.00001   0.00000   0.00011   0.00011   0.00484
   D16       -3.13128   0.00002   0.00000   0.00042   0.00042  -3.13085
   D17       -3.13457   0.00003   0.00000   0.00069   0.00069  -3.13388
   D18        0.01261   0.00004   0.00000   0.00100   0.00100   0.01361
   D19        0.01109   0.00001   0.00000   0.00026   0.00026   0.01135
   D20        3.10639  -0.00004   0.00000   0.00048   0.00048   3.10688
   D21       -3.13251  -0.00000   0.00000  -0.00025  -0.00025  -3.13276
   D22       -0.03721  -0.00005   0.00000  -0.00002  -0.00002  -0.03723
   D23       -0.00129  -0.00001   0.00000  -0.00017  -0.00017  -0.00146
   D24       -3.14038  -0.00000   0.00000   0.00003   0.00003  -3.14034
   D25        3.13474  -0.00002   0.00000  -0.00048  -0.00048   3.13426
   D26       -0.00434  -0.00001   0.00000  -0.00028  -0.00028  -0.00462
   D27       -0.00119  -0.00000   0.00000   0.00003   0.00003  -0.00116
   D28       -3.14105   0.00001   0.00000   0.00016   0.00016  -3.14089
   D29        3.13790  -0.00001   0.00000  -0.00017  -0.00017   3.13773
   D30       -0.00197  -0.00000   0.00000  -0.00003  -0.00003  -0.00200
   D31       -0.01143   0.00000   0.00000   0.00003   0.00003  -0.01140
   D32        3.11892   0.00001   0.00000  -0.00026  -0.00025   3.11866
   D33       -3.10589  -0.00008   0.00000  -0.00067  -0.00067  -3.10655
   D34        0.02446  -0.00007   0.00000  -0.00096  -0.00095   0.02351
   D35        2.66804   0.00020   0.00000   0.00219   0.00219   2.67023
   D36       -1.50062  -0.00027   0.00000  -0.00267  -0.00267  -1.50329
   D37        0.60364   0.00007   0.00000   0.00084   0.00084   0.60448
   D38       -0.53037   0.00022   0.00000   0.00277   0.00277  -0.52760
   D39        1.58416  -0.00024   0.00000  -0.00209  -0.00209   1.58207
   D40       -2.59477   0.00009   0.00000   0.00142   0.00142  -2.59335
   D41        0.00624  -0.00002   0.00000  -0.00034  -0.00034   0.00591
   D42       -3.12390   0.00000   0.00000   0.00008   0.00008  -3.12382
   D43        1.17866   0.00117   0.00000   0.00817   0.00814   1.18679
   D44       -1.05717  -0.00149   0.00000  -0.01381  -0.01377  -1.07094
   D45       -3.08101   0.00015   0.00000  -0.00053  -0.00054  -3.08155
   D46       -1.97502   0.00117   0.00000   0.00780   0.00777  -1.96725
   D47        2.07234  -0.00150   0.00000  -0.01418  -0.01414   2.05821
   D48        0.04850   0.00014   0.00000  -0.00090  -0.00091   0.04759
   D49       -3.12709  -0.00036   0.00000  -0.00290  -0.00290  -3.12999
   D50        1.03829   0.00017   0.00000   0.00073   0.00077   1.03906
   D51       -1.00503  -0.00010   0.00000  -0.00053  -0.00053  -1.00556
   D52       -1.12077  -0.00154   0.00000  -0.01459  -0.01460  -1.13538
   D53        3.04461  -0.00101   0.00000  -0.01095  -0.01093   3.03368
   D54        1.00128  -0.00128   0.00000  -0.01222  -0.01222   0.98906
   D55        1.16141   0.00113   0.00000   0.01225   0.01221   1.17362
   D56       -0.95639   0.00166   0.00000   0.01588   0.01589  -0.94051
   D57       -2.99972   0.00139   0.00000   0.01461   0.01459  -2.98513
   D58       -3.12135  -0.00027   0.00000  -0.00768  -0.00766  -3.12901
   D59       -1.01217   0.00008   0.00000   0.00025   0.00023  -1.01194
   D60        1.03244  -0.00083   0.00000  -0.01184  -0.01189   1.02055
   D61       -1.06415   0.00009   0.00000  -0.00408  -0.00403  -1.06818
   D62        1.04503   0.00045   0.00000   0.00385   0.00386   1.04889
   D63        3.08964  -0.00047   0.00000  -0.00824  -0.00826   3.08138
   D64        1.09774   0.00005   0.00000  -0.00646  -0.00641   1.09132
   D65       -3.07627   0.00041   0.00000   0.00147   0.00148  -3.07479
   D66       -1.03166  -0.00050   0.00000  -0.01062  -0.01064  -1.04230
   D67        1.28723   0.00508   0.00000   0.12518   0.12460   1.41183
   D68       -1.54562  -0.00194   0.00000  -0.04868  -0.04803  -1.59366
   D69       -0.80014   0.00452   0.00000   0.11791   0.11734  -0.68280
   D70        2.65019  -0.00250   0.00000  -0.05595  -0.05529   2.59490
   D71       -2.89080   0.00376   0.00000   0.11484   0.11415  -2.77665
   D72        0.55953  -0.00325   0.00000  -0.05902  -0.05848   0.50105
   D73       -2.83216  -0.00872   0.00000  -0.20402  -0.20516  -3.03733
   D74        0.30943  -0.00637   0.00000  -0.15444  -0.15561   0.15382
   D75       -0.00000  -0.00267   0.00000  -0.03600  -0.03484  -0.03484
   D76        3.14159  -0.00032   0.00000   0.01357   0.01472  -3.12687
         Item               Value     Threshold  Converged?
 Maximum Force            0.039451     0.000450     NO 
 RMS     Force            0.004595     0.000300     NO 
 Maximum Displacement     0.399398     0.001800     NO 
 RMS     Displacement     0.052157     0.001200     NO 
 Predicted change in Energy=-1.245107D-02
 GradGradGradGradGradGradGradGradGradGradGradGradGradGradGradGradGradGrad

                          Input orientation:                          
 ---------------------------------------------------------------------
 Center     Atomic      Atomic             Coordinates (Angstroms)
 Number     Number       Type             X           Y           Z
 ---------------------------------------------------------------------
      1          6           0       -3.057594    2.537130   -0.444165
      2          6           0       -2.488747    1.272741   -0.247529
      3          6           0       -3.295489    0.191586    0.161167
      4          6           0       -4.667809    0.322484    0.392089
      5          6           0       -5.207878    1.581228    0.192173
      6          6           0       -4.415671    2.673335   -0.220565
      7          1           0       -2.440634    3.371163   -0.760052
      8          1           0       -5.279340   -0.513149    0.716004
      9          1           0       -6.269209    1.733900    0.359612
     10          1           0       -4.888009    3.639758   -0.362405
     11          7           0       -2.443299   -0.890675    0.250598
     12          7           0       -1.174391    0.860132   -0.392311
     13          6           0       -1.216204   -0.404476   -0.084078
     14          6           0       -2.780557   -2.240755    0.673943
     15          1           0       -2.090332   -2.944933    0.207586
     16          1           0       -2.720238   -2.329214    1.760839
     17          1           0       -3.793692   -2.463707    0.335008
     18         16           0        0.219499   -1.461357   -0.070575
     19          8           0        0.070653   -2.438154   -1.151338
     20          8           0        0.390177   -1.940430    1.302172
     21          6           0        1.535386   -0.318513   -0.474658
     22          6           0        2.851409   -1.103990   -0.515816
     23          1           0        1.541738    0.455284    0.295908
     24          1           0        1.283868    0.134604   -1.436646
     25          6           0        3.986066   -0.164481   -0.837216
     26          1           0        3.005902   -1.585575    0.457174
     27          1           0        2.753774   -1.897885   -1.262681
     28          6           0        4.581111    0.626072    0.072245
     29          1           0        4.239327   -0.043954   -1.889966
     30          1           0        5.315149    1.326472   -0.302588
     31          1           0        4.304707    0.456174    1.108304
 ---------------------------------------------------------------------
                    Distance matrix (angstroms):
                    1          2          3          4          5
     1  C    0.000000
     2  C    1.400333   0.000000
     3  C    2.434050   1.409525   0.000000
     4  C    2.862999   2.461789   1.397756   0.000000
     5  C    2.437703   2.771674   2.364171   1.384225   0.000000
     6  C    1.383084   2.382316   2.749475   2.442421   1.410901
     7  H    1.084452   2.160641   3.418938   3.947426   3.430486
     8  H    3.947955   3.450393   2.177191   1.084977   2.160074
     9  H    3.406714   3.856576   3.355760   2.134861   1.085249
    10  H    2.138432   3.372302   3.834076   3.409113   2.155787
    11  N    3.551042   2.220487   1.380403   2.537758   3.708991
    12  N    2.522194   1.385186   2.291800   3.620540   4.138915
    13  C    3.489044   2.111667   2.176892   3.559323   4.466855
    14  C    4.914784   3.644025   2.538577   3.195521   4.553191
    15  H    5.604765   4.260826   3.360403   4.165746   5.495950
    16  H    5.353238   4.130522   3.040443   3.563427   4.892916
    17  H    5.114423   4.000409   2.707213   2.920650   4.287403
    18  S    5.183320   3.852428   3.891152   5.223210   6.227582
    19  O    5.919415   4.597623   4.468680   5.697043   6.769294
    20  O    5.914843   4.584130   4.408119   5.615359   6.706147
    21  C    5.408428   4.333281   4.899166   6.296170   7.037421
    22  C    6.941124   5.851333   6.318320   7.706994   8.524304
    23  H    5.102514   4.148297   4.846283   6.211711   6.843671
    24  H    5.060182   4.116064   4.850440   6.229127   6.847521
    25  C    7.554227   6.658570   7.358301   8.754306   9.414657
    26  H    7.387496   6.233598   6.553887   7.907639   8.807102
    27  H    7.356040   6.210268   6.556433   7.921376   8.809582
    28  C    7.891048   7.106569   7.889075   9.259426   9.836209
    29  H    7.873843   7.049700   7.812559   9.202126   9.809496
    30  H    8.461003   7.804275   8.697478  10.057336  10.537732
    31  H    7.806665   6.975392   7.663554   9.002048   9.622594
                    6          7          8          9         10
     6  C    0.000000
     7  H    2.163049   0.000000
     8  H    3.431729   5.032382   0.000000
     9  H    2.157486   4.311874   2.481146   0.000000
    10  H    1.084986   2.493974   4.308450   2.461974   0.000000
    11  N    4.100538   4.380032   2.898665   4.640890   5.184322
    12  N    3.717943   2.836174   4.468207   5.223602   4.638768
    13  C    4.441637   4.026365   4.142586   5.504759   5.469501
    14  C    5.255666   5.802199   3.038143   5.297866   6.332125
    15  H    6.095527   6.399383   4.042504   6.275157   7.177050
    16  H    5.641450   6.239180   3.307382   5.573825   6.695971
    17  H    5.204298   6.088976   2.481327   4.873263   6.239887
    18  S    6.213129   5.559221   5.635161   7.245554   7.224484
    19  O    6.864456   6.340964   5.984566   7.738400   7.883638
    20  O    6.833867   6.362333   5.875726   7.663977   7.859298
    21  C    6.665643   5.431749   6.920698   8.112959   7.545894
    22  C    8.195475   6.934866   8.244729   9.591958   9.078836
    23  H    6.377870   5.047444   6.902279   7.915163   7.205268
    24  H    6.356788   4.980463   6.937521   7.926743   7.178590
    25  C    8.889469   7.335477   9.401161  10.497948   9.666793
[...]
 03927,0.00007073,-0.00004554,0.00003900,0.00003044,-0.00001009,-0.0000
 0291,-0.00000457,0.00000698,-0.00001833,-0.00000323,0.00001043,-0.0006
 8443,0.00095781,-0.00261310,-0.00120939,0.00013078,0.00049556,0.000982
 81,-0.00054571,0.00109746,0.00078787,-0.00129728,0.00019495,0.02461450
 ,0.02956055,-0.10010112,0.00060283,0.00054174,-0.00002033,-0.00152647,
 -0.00063371,0.00064702,0.23965713,-0.09116182,0.68272233,-0.00001948,0
 .00003855,-0.00000782,0.00010419,-0.00021849,0.00004172,-0.00005130,-0
 .00002078,-0.00001634,-0.00003109,-0.00001559,0.00000080,0.00000096,-0
 .00002944,0.00000814,0.00003636,0.00000976,-0.00000717,0.00000499,-0.0
 0000797,-0.00000155,-0.00001084,0.00000009,0.,-0.00000056,-0.00000157,
 0.00000188,0.00000016,-0.00000056,0.00000067,-0.00015271,-0.00013049,0
 .00011082,-0.00019743,-0.00000212,0.00016395,-0.00007545,0.00040230,0.
 00021734,-0.00000275,0.00007146,-0.00001594,-0.00001549,-0.00003439,-0
 .00002224,-0.00002859,-0.00001201,0.00002405,0.00001121,-0.00002551,0.
 00000982,-0.00091614,0.00306470,-0.00513483,-0.00011629,-0.00090746,0.
 00042478,0.00131886,-0.00086977,0.00218435,-0.00753754,0.01128186,-0.0
 2763033,-0.05560345,0.01815662,-0.04174719,0.00121152,-0.00045429,0.00
 045029,-0.00507642,0.00234564,0.00124407,0.00390517,-0.01054873,0.0244
 1223,0.06638336,0.00000075,0.00000850,-0.00000627,-0.00002166,0.000044
 11,-0.00005253,0.00004311,0.00000678,0.00000394,-0.00000649,0.00000544
 ,-0.00000151,0.00000555,-0.00001016,0.00000133,0.00000982,0.00000019,-
 0.00000215,-0.00000293,0.00000072,0.00000321,0.00000376,0.00000181,-0.
 00000031,0.00000230,-0.00000055,0.00000047,0.00000330,-0.00000149,0.00
 000124,0.00006884,0.00000806,-0.00004473,0.00016024,-0.00008987,-0.000
 05441,0.00000112,-0.00008645,0.00013441,-0.00000086,-0.00001442,0.0000
 1578,-0.00000033,0.00000906,-0.00000803,0.00000215,0.00000922,-0.00000
 225,0.00000170,0.00000468,-0.00000221,-0.00029290,-0.00017457,0.000582
 73,-0.00004233,0.00003158,0.00021724,-0.00061598,-0.00026004,-0.000334
 24,0.00395464,-0.00683342,0.01450331,0.01791252,-0.09352035,0.09338861
 ,-0.00063858,0.00008694,0.00036713,0.00280992,-0.00060601,-0.00046009,
 0.00287426,-0.00919358,0.01965786,-0.02005002,0.09891235,0.00000197,-0
 .00000248,0.00000070,0.00000053,-0.00000642,0.00000150,-0.00002946,-0.
 00000029,0.00001271,0.00000691,0.00000350,0.00000027,-0.00000278,0.000
 00455,-0.00000090,-0.00000408,-0.00000306,0.00000179,0.00000097,-0.000
 00139,-0.00000044,-0.00000166,-0.00000109,0.00000060,-0.00000113,0.000
 00046,-0.00000064,-0.00000035,0.00000019,-0.00000032,-0.00004518,0.000
 02700,0.00000289,-0.00001995,0.00000379,0.00000124,-0.00010882,-0.0001
 2142,-0.00003162,-0.00000317,0.00002621,-0.00001114,-0.00000360,0.0000
 0249,-0.00000679,-0.00000749,-0.00000214,0.00000726,-0.00000155,-0.000
 00521,0.00000273,-0.00038611,0.00123061,-0.00117085,-0.00013609,-0.000
 17896,0.00033814,0.00096150,-0.00039479,0.00006556,-0.00071965,-0.0014
 7134,0.00347039,-0.04287231,0.09550259,-0.27242540,-0.00046453,-0.0000
 8459,0.00059393,0.00132966,-0.00021813,0.00105211,-0.00030668,0.003242
 42,-0.00813205,0.04580788,-0.10599449,0.29083570,-0.00002521,0.0000510
 9,-0.00000842,0.00010816,-0.00019721,0.00002801,0.00001117,0.00000511,
 0.00002764,-0.00003970,-0.00001409,0.00002145,0.00000653,-0.00004270,0
 .00000781,0.00004942,0.00001209,-0.00001330,0.00000405,-0.00000693,0.0
 0000413,-0.00000807,0.00000327,0.00000335,0.00000104,-0.00000396,-0.00
 000098,0.00000198,-0.00000215,-0.00000034,-0.00009669,-0.00020755,0.00
 002449,-0.00018401,-0.00010132,-0.00010267,-0.00007527,0.00042098,-0.0
 0045759,-0.00002531,0.00004500,0.00000819,-0.00003473,-0.00004757,0.00
 001485,0.00000382,-0.00001183,0.00000040,0.00000983,-0.00001629,-0.000
 00544,-0.00005899,0.00414954,0.00375553,0.00038991,-0.00149741,-0.0017
 6452,-0.00011856,-0.00084102,-0.00002620,-0.00050851,0.02371023,0.0221
 5828,-0.04550075,-0.01556746,-0.01468927,-0.00571333,0.00224975,-0.000
 42199,0.00111510,-0.00054914,-0.00044880,-0.00400336,-0.01984011,-0.01
 936421,-0.00100389,-0.00438094,-0.00313529,0.05794894,0.00000478,0.000
 00719,0.00000201,-0.00001328,0.00006426,0.00003315,0.00004123,0.000001
 28,-0.00002024,-0.00000421,0.00000297,0.00000144,0.00000640,-0.0000060
 8,0.00000150,0.00000563,0.00000052,-0.00000053,-0.00000330,-0.00000048
 ,-0.00000308,0.00000393,0.00000106,-0.00000225,0.00000163,-0.00000096,
 -0.00000124,0.00000224,-0.00000182,-0.00000159,0.00008992,0.00000581,0
 .00001447,0.00016511,-0.00004639,0.00006649,0.00006202,-0.00013174,-0.
 00011487,0.00000318,-0.00002252,0.00000446,0.00000434,0.00001771,-0.00
 001503,-0.00000290,0.00000631,0.00000062,0.00000307,0.00000525,0.00000
 024,-0.00050998,-0.00128112,-0.00104509,-0.00119775,0.00012286,0.00075
 897,0.00005194,0.00011237,-0.00002717,0.00200013,-0.01236021,-0.011303
 70,-0.01189447,-0.19495654,-0.13048587,0.00258612,-0.00043023,0.000522
 60,-0.00039551,0.00016091,-0.00003992,-0.00396560,-0.01418388,-0.01365
 308,0.00077333,0.01197620,0.00906684,0.01350513,0.21124187,0.00000341,
 -0.00000902,-0.00000013,-0.00002941,0.00004423,-0.00001575,0.00002751,
 0.00000742,0.00000067,0.00000275,-0.00000157,-0.00000321,0.00000100,0.
 00000577,-0.00000131,-0.00000775,0.00000029,0.00000082,-0.00000139,0.0
 0000319,0.00000034,0.00000305,0.00000035,-0.00000094,0.00000077,0.0000
 0022,0.00000024,-0.00000014,0.00000029,0.00000049,0.00006115,0.0000098
 2,-0.00000308,0.00003519,0.00003457,-0.00001350,0.00013412,0.00001779,
 0.00003196,0.00000413,-0.00003704,0.00000425,0.00001507,0.00001034,-0.
 00000284,-0.00000067,0.00000403,-0.00000330,-0.00000162,0.00000735,0.0
 0000145,0.00011669,-0.00265994,-0.00118723,-0.00090178,0.00083807,0.00
 026721,0.00021091,0.00050971,0.00018792,0.00157868,0.00064697,-0.00005
 337,-0.01098179,-0.12898822,-0.17317060,-0.00033517,0.00010494,0.00129
 057,0.00047761,0.00041577,0.00052355,-0.00133970,0.00756794,0.00805781
 ,-0.00161604,-0.02188490,-0.01766061,0.01145500,0.14397009,0.18125463,
 0.00001886,-0.00006859,0.00001205,0.00001146,0.00002067,-0.00000773,-0
 .00011666,-0.00007394,0.00004121,0.00005727,0.00001836,-0.00001268,-0.
 00002453,0.00005942,-0.00001197,-0.00006585,-0.00001520,0.00001498,0.0
 0000597,0.00000336,-0.00000026,-0.00000281,-0.00000724,0.00000260,-0.0
 0000944,0.00000660,-0.00000004,-0.00000944,0.00000786,0.00000036,-0.00
 016453,0.00018925,-0.00002056,-0.00011041,0.00006367,-0.00000483,-0.00
 009271,-0.00046344,0.00010723,0.00002582,0.00005951,-0.00003334,0.0000
 2726,0.00002526,0.00000179,0.00000676,-0.00000562,0.00000181,-0.000020
 15,0.00000239,0.00000446,0.00069386,0.00121769,-0.00058502,-0.00040413
 ,-0.00018226,-0.00001097,-0.00014910,-0.00019793,0.00028409,0.00026294
 ,-0.00278507,-0.00004135,-0.02075414,-0.01162999,-0.01527288,-0.000035
 70,0.00019025,0.00027341,-0.00022371,0.00006955,-0.00001232,-0.3789322
 0,-0.11011090,-0.23962735,0.00089795,0.00159831,-0.00094412,-0.0017743
 3,-0.00069895,0.00110328,0.65503753,0.00000914,-0.00006848,0.00001975,
 -0.00001147,0.00002328,-0.00001318,-0.00010478,-0.00006534,0.00002948,
 0.00004632,0.00002259,-0.00000671,-0.00002268,0.00004514,-0.00000563,-
 0.00005210,-0.00000113,0.00001392,-0.00000289,0.00000969,-0.00000844,-
 0.00000150,-0.00000448,-0.00000156,-0.00000461,0.00000576,-0.00000295,
 -0.00000922,0.00000470,-0.00000177,-0.00012423,0.00024294,-0.00003929,
 -0.00005216,0.00012478,0.00000682,-0.00016709,-0.00058412,0.00017969,0
 .00002173,0.00002864,-0.00003179,0.00002111,0.00001709,-0.00000053,0.0
 0000243,-0.00000414,0.00000026,-0.00001043,-0.00000034,0.00000438,0.00
 042213,0.00122878,-0.00077972,-0.00031955,0.00004408,0.00015085,-0.000
 01005,-0.00006697,0.00032139,-0.00072472,-0.00285546,0.00054259,-0.020
 89753,-0.00227320,-0.01192545,-0.00055924,0.00022306,0.00015529,-0.000
 30714,0.00001897,-0.00008674,-0.10985999,-0.10225980,-0.04982039,0.000
 36874,0.00058234,-0.00160610,-0.00210917,-0.00139553,0.00028973,0.2686
 5862,0.35390841,-0.00001352,0.00003966,-0.00000196,-0.00000998,-0.0000
 0698,0.00000974,0.00009524,0.00005414,-0.00003434,-0.00003388,-0.00001
 671,0.00000863,0.00001779,-0.00003785,0.00000780,0.00004238,0.00001151
 ,-0.00000848,-0.00000600,-0.00000171,-0.00000481,0.00000300,0.00000528
 ,-0.00000206,0.00000678,-0.00000481,-0.00000035,0.00000514,-0.00000511
 ,-0.00000139,0.00018772,-0.00015006,0.00000735,0.00005201,-0.00001195,
 0.00002004,0.00024491,0.00042044,-0.00014860,-0.00002491,-0.00006618,0
 .00003277,-0.00002019,-0.00001559,0.00000287,0.00000131,0.00000551,-0.
 00000485,0.00001277,0.00000224,-0.00000644,0.00019016,-0.00076584,0.00
 070360,0.00032617,0.00031153,0.00005330,-0.00007414,0.00019882,-0.0003
 8928,0.00190791,0.00106252,-0.00016813,0.00401476,0.00171514,0.0094945
 3,-0.00063625,0.00003751,0.00006410,0.00026600,-0.00003617,0.00008928,
 -0.23975528,-0.05065381,-0.28940458,0.00150546,0.00017016,0.00133185,0
 .00224350,0.00207634,0.00004995,0.21657388,-0.12067383,0.67149523,-0.0
 0000007,-0.00001154,0.00000231,-0.00001763,0.00002108,-0.00000321,0.00
 000047,0.00000343,-0.00000067,0.00000371,0.00000106,-0.00000136,-0.000
 00056,0.00000395,-0.00000067,-0.00000572,0.00000259,-0.00000001,-0.000
 00308,0.00000504,0.00000040,0.00000161,0.00000053,-0.00000045,0.000001
 08,0.00000060,-0.00000022,-0.00000047,-0.00000008,0.00000006,0.0000348
 4,0.00002887,-0.00001272,0.00000841,0.00003354,-0.00002997,0.00001241,
 -0.00003289,-0.00000012,0.00000057,-0.00001855,0.00000342,0.00000084,0
 .00000211,0.00000443,0.00000423,0.00000253,-0.00000428,-0.00000096,0.0
 0000441,-0.00000014,0.00046228,-0.00052271,0.00028835,-0.00005970,0.00
 017596,-0.00001915,-0.00034290,0.00028510,-0.00035790,0.00212651,-0.00
 042202,0.00058900,0.00213361,-0.00973290,0.02133331,-0.00012689,0.0000
 9338,0.00003324,-0.00048978,0.00033487,-0.00041081,-0.05371329,-0.0018
 9207,-0.01309093,-0.00308273,-0.00308735,0.00059886,0.00060698,0.00008
 547,-0.00060054,0.00268618,0.00946841,-0.02499349,0.05114678,0.0000082
 4,-0.00002319,0.00000223,0.00001033,0.00000560,0.00000089,-0.00004233,
 -0.00002757,0.00001833,0.00002054,0.00000464,-0.00000563,-0.00000937,0
 .00002353,-0.00000569,-0.00002631,-0.00000771,0.00000478,0.00000470,0.
 00000030,0.00000188,-0.00000113,-0.00000290,0.00000225,-0.00000423,0.0
 0000246,0.00000085,-0.00000349,0.00000354,0.00000071,-0.00007190,0.000
 05093,-0.00001106,-0.00005923,0.00001494,-0.00001517,-0.00002470,-0.00
 011720,0.00000742,0.00001066,0.00002362,-0.00000782,0.00001190,0.00000
 909,0.00000518,0.00000593,-0.00000313,-0.00000165,-0.00000984,0.000003
 00,0.00000153,0.00051202,0.00014326,0.00032605,-0.00012007,-0.00011785
 ,-0.00021279,-0.00030082,0.00005333,-0.00015101,0.00039492,-0.00000814
 ,-0.00018510,0.00074718,-0.00598932,0.01861610,-0.00000789,-0.00002612
 ,-0.00006131,-0.00046056,0.00031245,-0.00006506,-0.00051359,-0.0942977
 7,0.10919766,-0.00357111,-0.00121302,0.00088262,0.00084336,0.00065822,
 -0.00034735,-0.00251056,0.00813407,-0.00729924,0.00746716,0.08956561,0
 .00000033,0.00002471,-0.00000495,0.00001470,-0.00002114,0.00000396,0.0
 0001482,0.00001093,-0.00000598,-0.00001100,-0.00000651,0.00000361,0.00
 000441,-0.00000993,0.00000219,0.00001269,-0.00000222,-0.00000098,0.000
 00378,-0.00000632,-0.00000039,-0.00000151,-0.00000012,-0.00000018,-0.0
 0000029,-0.00000173,0.00000017,0.00000227,-0.00000106,-0.00000065,-0.0
 0000104,-0.00007610,0.00002228,0.00000078,-0.00005681,0.00002554,0.000
 04359,0.00014832,-0.00004695,-0.00000363,0.00001089,-0.00000167,-0.000
 00562,-0.00000520,-0.00000183,-0.00000363,-0.00000226,0.00000283,0.000
 00211,-0.00000257,0.00000008,-0.00000557,0.00010672,-0.00003815,0.0000
 7867,-0.00007631,-0.00000881,0.00004042,-0.00012912,0.00017818,-0.0004
 3312,-0.00010288,0.00026398,-0.00196525,0.00250016,-0.00422091,0.00007
 076,0.00004232,-0.00010624,0.00068159,-0.00001443,-0.00010863,-0.01587
 017,0.10756582,-0.28721190,0.00061750,0.00076930,0.00105894,0.00054614
 ,0.00038147,0.00023934,-0.00041224,0.00979077,-0.01473923,0.01980381,-
 0.12030075,0.30390233,0.00000150,-0.00002495,0.00000712,0.00000209,0.0
 0000679,-0.00000498,-0.00001485,-0.00001143,0.00000468,0.00001552,0.00
 000146,-0.00000208,-0.00000552,0.00001594,-0.00000271,-0.00001716,-0.0
 0000067,0.00000436,-0.00000034,0.00000209,-0.00000244,0.00000013,-0.00
 000123,-0.00000039,-0.00000149,0.00000133,-0.00000046,-0.00000384,0.00
 000195,-0.00000039,0.00000305,0.00002335,-0.00000557,-0.00004757,0.000
 04610,0.00000318,0.00005746,0.00001336,-0.00000547,0.00000277,-0.00000
 715,-0.00000419,0.00000817,0.00000805,-0.00000002,0.00000357,0.0000007
 9,-0.00000149,-0.00000418,0.00000298,0.00000007,0.00055917,-0.00034082
 ,-0.00016055,-0.00026115,0.00011396,0.00012029,-0.00014190,0.00003913,
 0.00003208,0.00093647,0.00035171,-0.00011842,0.00218811,-0.00517378,-0
 .00588280,-0.00005166,0.00010615,0.00003130,-0.00006126,-0.00000690,0.
 00000323,-0.01300305,-0.01583761,0.00921786,0.00019243,0.00027361,-0.0
 0000139,-0.00177028,-0.00091712,0.00034265,-0.20259836,-0.14110475,0.0
 5704428,-0.00153937,0.00363959,0.00161968,0.21084536,0.00000882,-0.000
 02542,0.00000372,0.00001120,0.00000347,0.00000027,-0.00005853,-0.00003
 974,0.00002272,0.00002252,0.00001113,-0.00000602,-0.00001121,0.0000237
 3,-0.00000500,-0.00002675,-0.00000782,0.00000565,0.00000376,0.00000038
 ,0.00000111,-0.00000159,-0.00000332,0.00000182,-0.00000464,0.00000304,
 0.00000023,-0.00000363,0.00000356,0.00000037,-0.00011035,0.00010335,-0
 .00001343,-0.00003344,0.00001000,-0.00000322,-0.00013336,-0.00029388,0
 .00005871,0.00001404,0.00004001,-0.00001444,0.00001009,0.00000655,0.00
 000244,0.00000302,-0.00000429,0.00000117,-0.00000836,-0.00000125,0.000
 00147,-0.00013403,0.00106105,-0.00001790,0.00006882,-0.00027015,-0.000
 18033,-0.00002991,-0.00016236,0.00011859,-0.00174038,-0.00143411,0.000
 06479,-0.00479541,0.00854333,0.00322163,0.00002841,-0.00016302,0.00001
 460,-0.00003599,-0.00000016,-0.00003382,-0.00423009,-0.00055648,0.0033
 9109,0.00027025,0.00020888,-0.00023525,0.00139220,0.00076734,-0.000457
 11,-0.14252326,-0.16314350,0.06124145,0.00349427,-0.00424510,-0.002634
 04,0.15637657,0.16314902,0.00000498,-0.00001624,0.00000205,0.00000201,
 0.00000362,-0.00000204,-0.00004247,-0.00002618,0.00001468,0.00001399,0
 .00000911,-0.00000347,-0.00000787,0.00001411,-0.00000266,-0.00001628,-
 0.00000378,0.00000321,0.00000161,0.00000112,0.00000105,-0.00000129,-0.
 00000196,0.00000079,-0.00000243,0.00000211,-0.00000009,-0.00000205,0.0
 0000185,0.00000050,-0.00008064,0.00008198,-0.00000988,-0.00001035,0.00
 001020,-0.00000115,-0.00010548,-0.00025384,0.00006754,0.00001070,0.000
 02993,-0.00001433,0.00000654,0.00000501,-0.00000032,-0.00000082,-0.000
 00296,0.00000196,-0.00000465,-0.00000187,0.00000265,-0.00014521,0.0007
 4255,-0.00020976,0.00000380,-0.00016310,-0.00005921,0.00004287,-0.0001
 2694,0.00018827,-0.00087190,-0.00107964,0.00034001,-0.00413826,0.00377
 014,-0.00006888,-0.00003555,-0.00002520,-0.00002046,0.00005265,-0.0000
 2874,-0.00002973,-0.01636027,-0.01352187,0.00909704,-0.00012522,-0.000
 27699,0.00019988,0.00049777,-0.00000968,0.00005957,0.06049984,0.063456
 81,-0.08221831,0.00184195,-0.00246336,-0.00010506,-0.06027605,-0.06620
 871,0.07637642,-0.00000296,0.00000846,0.00000052,-0.00000676,-0.000002
 31,-0.00000197,0.00000383,0.00000225,-0.00000389,-0.00000783,0.0000020
 8,0.00000149,0.00000148,-0.00000894,0.00000293,0.00000931,0.00000402,-
 0.00000124,-0.00000223,0.00000053,-0.00000244,0.00000007,0.00000104,-0
 .00000117,0.00000172,-0.00000053,-0.00000064,0.00000110,-0.00000151,-0
 .00000058,-0.00000006,0.00001803,0.00000042,0.00003545,0.00000348,0.00
 001530,-0.00005894,-0.00007789,0.00003334,-0.00000322,-0.00000309,-0.0
 0000243,-0.00000364,-0.00000348,-0.00000180,-0.00000392,-0.00000052,0.
 00000110,0.00000374,-0.00000263,0.00000060,-0.00034392,0.00023725,-0.0
 0020372,0.00012590,-0.00000288,0.00003810,0.00013618,-0.00001328,0.000
 14087,-0.00058528,-0.00041219,0.00005117,-0.00098778,0.00493684,0.0005
 8302,-0.00009225,-0.00001465,-0.00001050,0.00010037,-0.00003395,0.0000
 2142,0.00262441,0.00903505,-0.02388403,-0.00014502,-0.00058551,0.00048
 716,0.00068408,0.00020748,0.00024302,-0.05424367,-0.00256331,-0.019173
 52,0.00015264,-0.00593940,-0.00484500,0.00470617,-0.00782303,0.0192480
 7,0.04790102,-0.00000179,0.00000930,-0.00000534,0.00000515,-0.00000546
 ,0.00000286,0.00001968,0.00001540,-0.00000440,-0.00000579,-0.00000620,
 0.00000043,0.00000424,-0.00000613,-0.00000053,0.00000757,-0.00000120,-
 0.00000343,0.00000110,-0.00000173,0.00000429,0.00000018,0.00000085,0.0
 0000122,0.00000063,-0.00000090,0.00000121,0.00000155,-0.00000038,0.000
 00138,0.00003342,-0.00006297,0.00000872,-0.00000369,-0.00003075,-0.000
 01015,0.00007326,0.00016621,-0.00005182,-0.00000465,-0.00000502,0.0000
 0761,-0.00000258,-0.00000038,-0.00000101,-0.00000013,0.00000186,0.0000
 0021,0.00000035,0.00000110,-0.00000058,0.00016872,-0.00033024,0.000074
 74,-0.00006177,0.00002311,0.00002478,-0.00000699,-0.00002071,-0.000037
 16,0.00063910,0.00060941,0.00012832,0.00340902,-0.00412813,-0.00409979
 ,0.00013046,0.00007282,0.00004394,0.00006234,-0.00007961,0.00008245,-0
 .00235760,0.00747804,-0.00602149,0.00011700,0.00010708,0.00033387,-0.0
 0095086,-0.00033461,-0.00010373,-0.00091781,-0.09194182,0.11239362,-0.
 00579423,0.00707041,0.00209808,0.00240151,-0.00358423,0.01608251,0.003
 03260,0.08498489,0.00000096,0.00000925,-0.00000147,0.00000055,-0.00000
 296,-0.00000079,0.00000765,0.00000651,-0.00000378,-0.00000345,-0.00000
 250,0.00000160,0.00000229,-0.00000329,0.00000077,0.00000445,-0.0000010
 8,0.00000023,0.00000082,-0.00000235,-0.00000094,-0.00000039,-0.0000000
 6,-0.00000025,-0.00000004,-0.00000069,-0.00000008,0.00000116,-0.000000
 60,-0.00000044,0.00000651,-0.00003247,0.00000677,0.00000700,-0.0000185
 5,0.00001402,0.00003029,0.00006082,-0.00001878,-0.00000229,0.00000258,
 -0.00000144,-0.00000142,0.00000025,-0.00000181,-0.00000170,-0.00000002
 ,0.00000145,0.00000047,-0.00000025,-0.00000008,0.00003741,-0.00014040,
 -0.00005626,-0.00001702,0.00001192,0.00005076,0.00001125,-0.00002483,0
 .00007170,0.00043484,0.00016940,0.00021037,0.00301842,-0.00179561,-0.0
 0025953,-0.00006072,0.00005662,-0.00004778,0.00020971,-0.00004518,-0.0
 0000393,-0.00083533,0.00980897,-0.01501616,-0.00090110,-0.00069161,0.0
 0046254,-0.00035752,-0.00017736,0.00014510,-0.02192333,0.11004237,-0.2
 9623823,-0.00497251,0.00206451,0.00089908,-0.00196139,0.00165742,-0.00
 361027,0.02726440,-0.12095080,0.31339765\\-0.00000074,-0.00000105,0.00
 000113,0.00000021,0.00000154,0.00000455,0.00000032,-0.00000208,-0.0000
 0469,-0.00000009,-0.00000230,-0.00000147,-0.00000057,-0.00000112,-0.00
 000005,-0.00000138,-0.00000165,-0.00000024,-0.00000139,-0.00000083,-0.
 00000019,0.00000049,-0.00000206,0.00000008,-0.00000061,-0.00000214,0.0
 0000044,-0.00000144,-0.00000169,-0.00000008,-0.00000165,0.00000051,0.0
 0000409,-0.00000101,-0.00000014,-0.00000181,0.00000168,-0.00000049,-0.
 00000491,0.00000210,-0.00000284,0.00000031,0.00000112,0.00000070,-0.00
 000005,0.00000143,-0.00000098,0.00000078,0.00000080,-0.00000102,-0.000
 00022,-0.00000470,0.00000311,0.00001146,0.00000344,-0.00000327,-0.0000
 0519,0.00000180,0.00000208,-0.00000442,0.00000022,0.00000053,-0.000000
 27,0.00000059,0.00000095,-0.00000102,-0.00000047,0.00000050,0.00000033
 ,-0.00000089,0.00000054,0.00000006,-0.00000007,0.00000229,0.00000141,0
 .00000091,0.00000109,0.00000020,0.00000074,0.00000133,0.00000006,-0.00
 000108,0.00000272,0.00000034,-0.00000038,0.00000132,-0.00000034,0.0000
 0018,0.00000270,-0.00000042,0.00000041,0.00000175,0.00000015\\\@
 The archive entry for this job was punched.


 Luck is a matter of preparation meeting opportunity.
                                    -- Oprah Winfrey
 Job cpu time:       0 days  1 hours  0 minutes  3.8 seconds.
 Elapsed time:       0 days  0 hours  0 minutes 40.7 seconds.
 File lengths (MBytes):  RWF=    311 Int=      0 D2E=      0 Chk=      8 Scr=      1
 Normal termination of Gaussian 16 at Fri Nov 21 15:50:25 2025.
