 Entering Gaussian System, Link 0=g16
 Initial command:
 /public/software/g16/l1.exe "/tmp/Gau-12152.inp" -scrdir="/tmp/"
 Entering Link 1 = /public/software/g16/l1.exe PID=     12153.
  
 Copyright (c) 1988-2021, Gaussian, Inc.  All Rights Reserved.
  
 This is part of the Gaussian(R) 16 program.  It is based on
 the Gaussian(R) 09 system (copyright 2009, Gaussian, Inc.),
 the Gaussian(R) 03 system (copyright 2003, Gaussian, Inc.),
 the Gaussian(R) 98 system (copyright 1998, Gaussian, Inc.),
 the Gaussian(R) 94 system (copyright 1995, Gaussian, Inc.),
 the Gaussian 92(TM) system (copyright 1992, Gaussian, Inc.),
 the Gaussian 90(TM) system (copyright 1990, Gaussian, Inc.),
 the Gaussian 88(TM) system (copyright 1988, Gaussian, Inc.),
 the Gaussian 86(TM) system (copyright 1986, Carnegie Mellon
 University), and the Gaussian 82(TM) system (copyright 1983,
 Carnegie Mellon University). Gaussian is a federally registered
 trademark of Gaussian, Inc.
  
 This software contains proprietary and confidential information,
 including trade secrets, belonging to Gaussian, Inc.
  
 This software is provided under written license and may be
 used, copied, transmitted, or stored only in accord with that
 written license.
  
 The following legend is applicable only to US Government
 contracts under FAR:
  
                    RESTRICTED RIGHTS LEGEND
  
 Use, reproduction and disclosure by the US Government is
 subject to restrictions as set forth in subparagraphs (a)
 and (c) of the Commercial Computer Software - Restricted
 Rights clause in FAR 52.227-19.
  
 Gaussian, Inc.
 340 Quinnipiac St., Bldg. 40, Wallingford CT 06492
  
  
 ---------------------------------------------------------------
 Warning -- This program may not be used in any manner that
 competes with the business of Gaussian, Inc. or will provide
 assistance to any competitor of Gaussian, Inc.  The licensee
 of this program is prohibited from giving any competitor of
 Gaussian, Inc. access to this program.  By using this program,
 the user acknowledges that Gaussian, Inc. is engaged in the
 business of creating and licensing software in the field of
 computational chemistry and represents and warrants to the
 licensee that it is not a competitor of Gaussian, Inc. and that
 it will not use this program in any manner prohibited above.
 ---------------------------------------------------------------
  

 Cite this work as:
 Gaussian 16, Revision C.02,
 M. J. Frisch, G. W. Trucks, H. B. Schlegel, G. E. Scuseria, 
 M. A. Robb, J. R. Cheeseman, G. Scalmani, V. Barone, 
 G. A. Petersson, H. Nakatsuji, X. Li, M. Caricato, A. V. Marenich, 
 J. Bloino, B. G. Janesko, R. Gomperts, B. Mennucci, H. P. Hratchian, 
 J. V. Ortiz, A. F. Izmaylov, J. L. Sonnenberg, D. Williams-Young, 
 F. Ding, F. Lipparini, F. Egidi, J. Goings, B. Peng, A. Petrone, 
 T. Henderson, D. Ranasinghe, V. G. Zakrzewski, J. Gao, N. Rega, 
 G. Zheng, W. Liang, M. Hada, M. Ehara, K. Toyota, R. Fukuda, 
 J. Hasegawa, M. Ishida, T. Nakajima, Y. Honda, O. Kitao, H. Nakai, 
 T. Vreven, K. Throssell, J. A. Montgomery, Jr., J. E. Peralta, 
 F. Ogliaro, M. J. Bearpark, J. J. Heyd, E. N. Brothers, K. N. Kudin, 
 V. N. Staroverov, T. A. Keith, R. Kobayashi, J. Normand, 
 K. Raghavachari, A. P. Rendell, J. C. Burant, S. S. Iyengar, 
 J. Tomasi, M. Cossi, J. M. Millam, M. Klene, C. Adamo, R. Cammi, 
 J. W. Ochterski, R. L. Martin, K. Morokuma, O. Farkas, 
 J. B. Foresman, and D. J. Fox, Gaussian, Inc., Wallingford CT, 2019.
 
 ******************************************
 Gaussian 16:  ES64L-G16RevC.02  7-Dec-2021
                21-Nov-2025 
 ******************************************
 %nprocshared=96
 Will use up to   96 processors via shared memory.
 %mem=10GB
 %chk=TS1.chk
 ---------------------------------------------
 # opt=(calcfc,ts,noeigen) freq 6-31g(d) m062x
 ---------------------------------------------
 1/5=1,10=4,11=1,18=20,26=3,38=1/1,3;
 2/9=110,12=2,17=6,18=5,40=1/2;
 3/5=1,6=6,7=1,11=2,25=1,30=1,71=2,74=-55,140=1/1,2,3;
 4//1;
 5/5=2,38=5/2;
 8/6=4,10=90,11=11/1;
 11/6=1,8=1,9=11,15=111,16=1/1,2,10;
 10/6=1,13=1/2;
 6/7=2,8=2,9=2,10=2,28=1/1;
 7/10=1,25=1/1,2,3,16;
 1/5=1,10=4,11=1,18=20,26=3/3(2);
 2/9=110/2;
 99//99;
 2/9=110/2;
 3/5=1,6=6,7=1,11=2,25=1,30=1,71=1,74=-55/1,2,3;
 4/5=5,16=3,69=1/1;
 5/5=2,38=5/2;
 7//1,2,3,16;
 1/5=1,11=1,18=20,26=3/3(-5);
 2/9=110/2;
 6/7=2,8=2,9=2,10=2,19=2,28=1/1;
 99/9=1/99;
 -------------------
 Title Card Required
 -------------------
 Symbolic Z-matrix:
 Charge =  0 Multiplicity = 2
 C                    -2.65744  -1.69012  -1.35703 
 C                    -1.53694  -1.21078  -0.65643 
 C                    -1.72042  -0.44659   0.52067 
 C                    -2.98424  -0.12335   1.02127 
 C                    -4.07277  -0.60933   0.31202 
 C                    -3.911    -1.38282  -0.85874 
 H                    -2.5288   -2.27953  -2.2587 
 H                    -3.10864   0.4731    1.91912 
 H                    -5.0752   -0.38919   0.66427 
 H                    -4.79484  -1.73881  -1.37796 
 N                    -0.46104  -0.13384   0.9732 
 N                    -0.20458  -1.36785  -0.91603 
 C                     0.41371  -0.62617   0.01114 
 C                    -0.21472   0.68444   2.15215 
 H                    -0.63654   1.68466   2.00787 
 H                    -0.6966    0.21516   3.01363 
 H                     0.85508   0.75362   2.33008 
 S                     2.08804  -1.15845   0.4376 
 O                     2.08846  -2.58916   0.74388 
 O                     2.6283   -0.22837   1.43792 
 C                     2.86686  -0.83135  -1.13494 
 C                     2.65388   0.65993  -1.38804 
 H                     2.36055  -1.46825  -1.86467 
 H                     3.91561  -1.12339  -1.04276 
 C                     1.20365   1.04905  -1.20669 
 H                     3.28072   1.2269   -0.69336 
 H                     2.98727   0.89678  -2.40591 
 C                     0.92232   2.35655  -0.52952 
 H                     0.54734   0.792    -2.0367 
 H                     1.25761   2.30879   0.51755 
 H                     1.56459   3.1256   -0.9932 
 C                    -0.53109   2.81963  -0.61872 
 C                    -0.76031   4.13513   0.12036 
 H                    -1.19852   2.04565  -0.22081 
 H                    -0.79774   2.93528  -1.67638 
 H                    -1.80008   4.46301   0.03825 
 H                    -0.52183   4.03385   1.18521 
 H                    -0.1223    4.92664  -0.28683 
 

 GradGradGradGradGradGradGradGradGradGradGradGradGradGradGradGradGradGrad
 Berny optimization.
 Initialization pass.
                           ----------------------------
                           !    Initial Parameters    !
                           ! (Angstroms and Degrees)  !
 --------------------------                            --------------------------
 ! Name  Definition              Value          Derivative Info.                !
 --------------------------------------------------------------------------------
 ! R1    R(1,2)                  1.4058         calculate D2E/DX2 analytically  !
 ! R2    R(1,6)                  1.3835         calculate D2E/DX2 analytically  !
 ! R3    R(1,7)                  1.0849         calculate D2E/DX2 analytically  !
 ! R4    R(2,3)                  1.4153         calculate D2E/DX2 analytically  !
 ! R5    R(2,12)                 1.3665         calculate D2E/DX2 analytically  !
 ! R6    R(3,4)                  1.3972         calculate D2E/DX2 analytically  !
 ! R7    R(3,11)                 1.3743         calculate D2E/DX2 analytically  !
 ! R8    R(4,5)                  1.3871         calculate D2E/DX2 analytically  !
 ! R9    R(4,8)                  1.0851         calculate D2E/DX2 analytically  !
 ! R10   R(5,6)                  1.4125         calculate D2E/DX2 analytically  !
 ! R11   R(5,9)                  1.0851         calculate D2E/DX2 analytically  !
 ! R12   R(6,10)                 1.0851         calculate D2E/DX2 analytically  !
 ! R13   R(11,13)                1.3904         calculate D2E/DX2 analytically  !
 ! R14   R(11,14)                1.4561         calculate D2E/DX2 analytically  !
 ! R15   R(12,13)                1.3387         calculate D2E/DX2 analytically  !
 ! R16   R(13,18)                1.8079         calculate D2E/DX2 analytically  !
 ! R17   R(14,15)                1.0951         calculate D2E/DX2 analytically  !
 ! R18   R(14,16)                1.093          calculate D2E/DX2 analytically  !
 ! R19   R(14,17)                1.0867         calculate D2E/DX2 analytically  !
 ! R20   R(18,19)                1.4631         calculate D2E/DX2 analytically  !
 ! R21   R(18,20)                1.4689         calculate D2E/DX2 analytically  !
 ! R22   R(18,21)                1.7851         calculate D2E/DX2 analytically  !
 ! R23   R(21,22)                1.5275         calculate D2E/DX2 analytically  !
 ! R24   R(21,23)                1.0929         calculate D2E/DX2 analytically  !
 ! R25   R(21,24)                1.0925         calculate D2E/DX2 analytically  !
 ! R26   R(22,25)                1.5124         calculate D2E/DX2 analytically  !
 ! R27   R(22,26)                1.0941         calculate D2E/DX2 analytically  !
 ! R28   R(22,27)                1.097          calculate D2E/DX2 analytically  !
 ! R29   R(25,28)                1.4991         calculate D2E/DX2 analytically  !
 ! R30   R(25,29)                1.0889         calculate D2E/DX2 analytically  !
 ! R31   R(28,30)                1.1005         calculate D2E/DX2 analytically  !
 ! R32   R(28,31)                1.1041         calculate D2E/DX2 analytically  !
 ! R33   R(28,32)                1.528          calculate D2E/DX2 analytically  !
 ! R34   R(32,33)                1.5262         calculate D2E/DX2 analytically  !
 ! R35   R(32,34)                1.0967         calculate D2E/DX2 analytically  !
 ! R36   R(32,35)                1.0969         calculate D2E/DX2 analytically  !
 ! R37   R(33,36)                1.0933         calculate D2E/DX2 analytically  !
 ! R38   R(33,37)                1.0959         calculate D2E/DX2 analytically  !
 ! R39   R(33,38)                1.0952         calculate D2E/DX2 analytically  !
 ! A1    A(2,1,6)              117.8379         calculate D2E/DX2 analytically  !
 ! A2    A(2,1,7)              120.3284         calculate D2E/DX2 analytically  !
 ! A3    A(6,1,7)              121.8336         calculate D2E/DX2 analytically  !
 ! A4    A(1,2,3)              119.6869         calculate D2E/DX2 analytically  !
 ! A5    A(1,2,12)             130.039          calculate D2E/DX2 analytically  !
 ! A6    A(3,2,12)             110.2715         calculate D2E/DX2 analytically  !
 ! A7    A(2,3,4)              122.6927         calculate D2E/DX2 analytically  !
 ! A8    A(2,3,11)             106.1362         calculate D2E/DX2 analytically  !
 ! A9    A(4,3,11)             131.1675         calculate D2E/DX2 analytically  !
 ! A10   A(3,4,5)              116.4593         calculate D2E/DX2 analytically  !
 ! A11   A(3,4,8)              121.8249         calculate D2E/DX2 analytically  !
 ! A12   A(5,4,8)              121.7154         calculate D2E/DX2 analytically  !
 ! A13   A(4,5,6)              121.7211         calculate D2E/DX2 analytically  !
 ! A14   A(4,5,9)              119.2032         calculate D2E/DX2 analytically  !
 ! A15   A(6,5,9)              119.0757         calculate D2E/DX2 analytically  !
 ! A16   A(1,6,5)              121.5957         calculate D2E/DX2 analytically  !
 ! A17   A(1,6,10)             119.5242         calculate D2E/DX2 analytically  !
 ! A18   A(5,6,10)             118.8797         calculate D2E/DX2 analytically  !
 ! A19   A(3,11,13)            105.5527         calculate D2E/DX2 analytically  !
 ! A20   A(3,11,14)            123.3343         calculate D2E/DX2 analytically  !
 ! A21   A(13,11,14)           130.7537         calculate D2E/DX2 analytically  !
 ! A22   A(2,12,13)            104.7782         calculate D2E/DX2 analytically  !
 ! A23   A(11,13,12)           112.6339         calculate D2E/DX2 analytically  !
 ! A24   A(11,13,18)           121.5803         calculate D2E/DX2 analytically  !
 ! A25   A(12,13,18)           115.3408         calculate D2E/DX2 analytically  !
 ! A26   A(11,14,15)           109.9656         calculate D2E/DX2 analytically  !
 ! A27   A(11,14,16)           108.8029         calculate D2E/DX2 analytically  !
 ! A28   A(11,14,17)           109.5655         calculate D2E/DX2 analytically  !
 ! A29   A(15,14,16)           109.0375         calculate D2E/DX2 analytically  !
 ! A30   A(15,14,17)           110.0371         calculate D2E/DX2 analytically  !
 ! A31   A(16,14,17)           109.4094         calculate D2E/DX2 analytically  !
 ! A32   A(13,18,19)           109.727          calculate D2E/DX2 analytically  !
 ! A33   A(13,18,20)           108.3516         calculate D2E/DX2 analytically  !
 ! A34   A(13,18,21)            98.1813         calculate D2E/DX2 analytically  !
 ! A35   A(19,18,20)           118.4571         calculate D2E/DX2 analytically  !
 ! A36   A(19,18,21)           111.3132         calculate D2E/DX2 analytically  !
 ! A37   A(20,18,21)           108.8712         calculate D2E/DX2 analytically  !
 ! A38   A(18,21,22)           105.3089         calculate D2E/DX2 analytically  !
 ! A39   A(18,21,23)           106.2179         calculate D2E/DX2 analytically  !
 ! A40   A(18,21,24)           107.1877         calculate D2E/DX2 analytically  !
 ! A41   A(22,21,23)           113.1851         calculate D2E/DX2 analytically  !
 ! A42   A(22,21,24)           114.128          calculate D2E/DX2 analytically  !
 ! A43   A(23,21,24)           110.1969         calculate D2E/DX2 analytically  !
 ! A44   A(21,22,25)           111.4077         calculate D2E/DX2 analytically  !
 ! A45   A(21,22,26)           108.7137         calculate D2E/DX2 analytically  !
 ! A46   A(21,22,27)           108.7935         calculate D2E/DX2 analytically  !
 ! A47   A(25,22,26)           109.8723         calculate D2E/DX2 analytically  !
 ! A48   A(25,22,27)           110.3124         calculate D2E/DX2 analytically  !
 ! A49   A(26,22,27)           107.6467         calculate D2E/DX2 analytically  !
 ! A50   A(22,25,28)           117.2911         calculate D2E/DX2 analytically  !
 ! A51   A(22,25,29)           115.201          calculate D2E/DX2 analytically  !
 ! A52   A(28,25,29)           115.9187         calculate D2E/DX2 analytically  !
 ! A53   A(25,28,30)           109.558          calculate D2E/DX2 analytically  !
 ! A54   A(25,28,31)           107.9785         calculate D2E/DX2 analytically  !
 ! A55   A(25,28,32)           114.612          calculate D2E/DX2 analytically  !
 ! A56   A(30,28,31)           104.6305         calculate D2E/DX2 analytically  !
 ! A57   A(30,28,32)           111.0077         calculate D2E/DX2 analytically  !
 ! A58   A(31,28,32)           108.525          calculate D2E/DX2 analytically  !
 ! A59   A(28,32,33)           112.0746         calculate D2E/DX2 analytically  !
 ! A60   A(28,32,34)           110.1083         calculate D2E/DX2 analytically  !
 ! A61   A(28,32,35)           108.6311         calculate D2E/DX2 analytically  !
 ! A62   A(33,32,34)           109.9494         calculate D2E/DX2 analytically  !
 ! A63   A(33,32,35)           109.8501         calculate D2E/DX2 analytically  !
 ! A64   A(34,32,35)           106.0393         calculate D2E/DX2 analytically  !
 ! A65   A(32,33,36)           111.4048         calculate D2E/DX2 analytically  !
 ! A66   A(32,33,37)           110.9894         calculate D2E/DX2 analytically  !
 ! A67   A(32,33,38)           110.8185         calculate D2E/DX2 analytically  !
 ! A68   A(36,33,37)           107.9168         calculate D2E/DX2 analytically  !
 ! A69   A(36,33,38)           108.0211         calculate D2E/DX2 analytically  !
 ! A70   A(37,33,38)           107.5348         calculate D2E/DX2 analytically  !
 ! D1    D(6,1,2,3)              0.2832         calculate D2E/DX2 analytically  !
 ! D2    D(6,1,2,12)           179.6283         calculate D2E/DX2 analytically  !
 ! D3    D(7,1,2,3)           -179.8051         calculate D2E/DX2 analytically  !
 ! D4    D(7,1,2,12)            -0.46           calculate D2E/DX2 analytically  !
 ! D5    D(2,1,6,5)              0.2329         calculate D2E/DX2 analytically  !
 ! D6    D(2,1,6,10)           179.9934         calculate D2E/DX2 analytically  !
 ! D7    D(7,1,6,5)           -179.6773         calculate D2E/DX2 analytically  !
 ! D8    D(7,1,6,10)             0.0832         calculate D2E/DX2 analytically  !
 ! D9    D(1,2,3,4)             -0.8927         calculate D2E/DX2 analytically  !
 ! D10   D(1,2,3,11)           179.7264         calculate D2E/DX2 analytically  !
 ! D11   D(12,2,3,4)           179.6418         calculate D2E/DX2 analytically  !
 ! D12   D(12,2,3,11)            0.2609         calculate D2E/DX2 analytically  !
 ! D13   D(1,2,12,13)          175.6659         calculate D2E/DX2 analytically  !
 ! D14   D(3,2,12,13)           -4.9406         calculate D2E/DX2 analytically  !
 ! D15   D(2,3,4,5)              0.9194         calculate D2E/DX2 analytically  !
 ! D16   D(2,3,4,8)           -179.2947         calculate D2E/DX2 analytically  !
 ! D17   D(11,3,4,5)          -179.8706         calculate D2E/DX2 analytically  !
 ! D18   D(11,3,4,8)            -0.0848         calculate D2E/DX2 analytically  !
 ! D19   D(2,3,11,13)            4.3735         calculate D2E/DX2 analytically  !
 ! D20   D(2,3,11,14)          178.1547         calculate D2E/DX2 analytically  !
 ! D21   D(4,3,11,13)         -174.9344         calculate D2E/DX2 analytically  !
 ! D22   D(4,3,11,14)           -1.1532         calculate D2E/DX2 analytically  !
 ! D23   D(3,4,5,6)             -0.3825         calculate D2E/DX2 analytically  !
 ! D24   D(3,4,5,9)            179.6876         calculate D2E/DX2 analytically  !
 ! D25   D(8,4,5,6)            179.8314         calculate D2E/DX2 analytically  !
 ! D26   D(8,4,5,9)             -0.0984         calculate D2E/DX2 analytically  !
 ! D27   D(4,5,6,1)             -0.1847         calculate D2E/DX2 analytically  !
 ! D28   D(4,5,6,10)          -179.9468         calculate D2E/DX2 analytically  !
 ! D29   D(9,5,6,1)            179.7452         calculate D2E/DX2 analytically  !
 ! D30   D(9,5,6,10)            -0.0169         calculate D2E/DX2 analytically  !
 ! D31   D(3,11,13,12)          -7.9714         calculate D2E/DX2 analytically  !
 ! D32   D(3,11,13,18)        -151.1627         calculate D2E/DX2 analytically  !
 ! D33   D(14,11,13,12)        178.8903         calculate D2E/DX2 analytically  !
 ! D34   D(14,11,13,18)         35.699          calculate D2E/DX2 analytically  !
 ! D35   D(3,11,14,15)         -61.3791         calculate D2E/DX2 analytically  !
 ! D36   D(3,11,14,16)          57.9816         calculate D2E/DX2 analytically  !
 ! D37   D(3,11,14,17)         177.5572         calculate D2E/DX2 analytically  !
 ! D38   D(13,11,14,15)        110.7024         calculate D2E/DX2 analytically  !
 ! D39   D(13,11,14,16)       -129.9369         calculate D2E/DX2 analytically  !
 ! D40   D(13,11,14,17)        -10.3614         calculate D2E/DX2 analytically  !
 ! D41   D(2,12,13,11)           8.0001         calculate D2E/DX2 analytically  !
 ! D42   D(2,12,13,18)         153.6146         calculate D2E/DX2 analytically  !
 ! D43   D(11,13,18,19)         91.7737         calculate D2E/DX2 analytically  !
 ! D44   D(11,13,18,20)        -38.9402         calculate D2E/DX2 analytically  !
 ! D45   D(11,13,18,21)       -152.0171         calculate D2E/DX2 analytically  !
 ! D46   D(12,13,18,19)        -50.501          calculate D2E/DX2 analytically  !
 ! D47   D(12,13,18,20)        178.7851         calculate D2E/DX2 analytically  !
 ! D48   D(12,13,18,21)         65.7082         calculate D2E/DX2 analytically  !
 ! D49   D(13,18,21,22)         58.8946         calculate D2E/DX2 analytically  !
 ! D50   D(13,18,21,23)        -61.4184         calculate D2E/DX2 analytically  !
 ! D51   D(13,18,21,24)       -179.215          calculate D2E/DX2 analytically  !
 ! D52   D(19,18,21,22)        173.864          calculate D2E/DX2 analytically  !
 ! D53   D(19,18,21,23)         53.551          calculate D2E/DX2 analytically  !
 ! D54   D(19,18,21,24)        -64.2455         calculate D2E/DX2 analytically  !
 ! D55   D(20,18,21,22)        -53.7675         calculate D2E/DX2 analytically  !
 ! D56   D(20,18,21,23)       -174.0805         calculate D2E/DX2 analytically  !
 ! D57   D(20,18,21,24)         68.123          calculate D2E/DX2 analytically  !
 ! D58   D(18,21,22,25)        -50.3322         calculate D2E/DX2 analytically  !
 ! D59   D(18,21,22,26)         70.8862         calculate D2E/DX2 analytically  !
 ! D60   D(18,21,22,27)       -172.1538         calculate D2E/DX2 analytically  !
 ! D61   D(23,21,22,25)         65.278          calculate D2E/DX2 analytically  !
 ! D62   D(23,21,22,26)       -173.5037         calculate D2E/DX2 analytically  !
 ! D63   D(23,21,22,27)        -56.5437         calculate D2E/DX2 analytically  !
 ! D64   D(24,21,22,25)       -167.6104         calculate D2E/DX2 analytically  !
 ! D65   D(24,21,22,26)        -46.3921         calculate D2E/DX2 analytically  !
 ! D66   D(24,21,22,27)         70.5679         calculate D2E/DX2 analytically  !
 ! D67   D(21,22,25,28)        140.1795         calculate D2E/DX2 analytically  !
 ! D68   D(21,22,25,29)        -77.9724         calculate D2E/DX2 analytically  !
 ! D69   D(26,22,25,28)         19.6394         calculate D2E/DX2 analytically  !
 ! D70   D(26,22,25,29)        161.4875         calculate D2E/DX2 analytically  !
 ! D71   D(27,22,25,28)        -98.8834         calculate D2E/DX2 analytically  !
 ! D72   D(27,22,25,29)         42.9647         calculate D2E/DX2 analytically  !
 ! D73   D(22,25,28,30)        -65.8421         calculate D2E/DX2 analytically  !
 ! D74   D(22,25,28,31)         47.5545         calculate D2E/DX2 analytically  !
 ! D75   D(22,25,28,32)        168.6229         calculate D2E/DX2 analytically  !
 ! D76   D(29,25,28,30)        152.5808         calculate D2E/DX2 analytically  !
 ! D77   D(29,25,28,31)        -94.0226         calculate D2E/DX2 analytically  !
 ! D78   D(29,25,28,32)         27.0457         calculate D2E/DX2 analytically  !
 ! D79   D(25,28,32,33)        178.4608         calculate D2E/DX2 analytically  !
 ! D80   D(25,28,32,34)         55.7397         calculate D2E/DX2 analytically  !
 ! D81   D(25,28,32,35)        -59.9779         calculate D2E/DX2 analytically  !
 ! D82   D(30,28,32,33)         53.6866         calculate D2E/DX2 analytically  !
 ! D83   D(30,28,32,34)        -69.0346         calculate D2E/DX2 analytically  !
 ! D84   D(30,28,32,35)        175.2479         calculate D2E/DX2 analytically  !
 ! D85   D(31,28,32,33)        -60.7717         calculate D2E/DX2 analytically  !
 ! D86   D(31,28,32,34)        176.5071         calculate D2E/DX2 analytically  !
 ! D87   D(31,28,32,35)         60.7896         calculate D2E/DX2 analytically  !
 ! D88   D(28,32,33,36)        179.2362         calculate D2E/DX2 analytically  !
 ! D89   D(28,32,33,37)        -60.479          calculate D2E/DX2 analytically  !
 ! D90   D(28,32,33,38)         58.9349         calculate D2E/DX2 analytically  !
 ! D91   D(34,32,33,36)        -57.9527         calculate D2E/DX2 analytically  !
 ! D92   D(34,32,33,37)         62.3322         calculate D2E/DX2 analytically  !
 ! D93   D(34,32,33,38)       -178.2539         calculate D2E/DX2 analytically  !
 ! D94   D(35,32,33,36)         58.3771         calculate D2E/DX2 analytically  !
 ! D95   D(35,32,33,37)        178.662          calculate D2E/DX2 analytically  !
 ! D96   D(35,32,33,38)        -61.9241         calculate D2E/DX2 analytically  !
 --------------------------------------------------------------------------------
 Trust Radius=3.00D-01 FncErr=1.00D-07 GrdErr=1.00D-06 EigMax=2.50D+02 EigMin=1.00D-04
 Number of steps in this run=    215 maximum allowed number of steps=    228.
 Search for a saddle point of order  1.
 GradGradGradGradGradGradGradGradGradGradGradGradGradGradGradGradGradGrad

                          Input orientation:                          
 ---------------------------------------------------------------------
 Center     Atomic      Atomic             Coordinates (Angstroms)
 Number     Number       Type             X           Y           Z
 ---------------------------------------------------------------------
      1          6           0       -2.657444   -1.690117   -1.357032
      2          6           0       -1.536935   -1.210776   -0.656426
      3          6           0       -1.720424   -0.446592    0.520672
      4          6           0       -2.984236   -0.123349    1.021266
      5          6           0       -4.072767   -0.609326    0.312021
      6          6           0       -3.911001   -1.382824   -0.858735
      7          1           0       -2.528800   -2.279526   -2.258695
      8          1           0       -3.108640    0.473101    1.919120
      9          1           0       -5.075204   -0.389191    0.664267
     10          1           0       -4.794836   -1.738811   -1.377955
     11          7           0       -0.461039   -0.133841    0.973195
     12          7           0       -0.204579   -1.367850   -0.916025
     13          6           0        0.413714   -0.626167    0.011136
     14          6           0       -0.214718    0.684440    2.152151
     15          1           0       -0.636536    1.684661    2.007872
     16          1           0       -0.696603    0.215160    3.013635
     17          1           0        0.855077    0.753623    2.330081
     18         16           0        2.088042   -1.158446    0.437600
     19          8           0        2.088464   -2.589162    0.743881
     20          8           0        2.628295   -0.228371    1.437919
     21          6           0        2.866857   -0.831351   -1.134941
     22          6           0        2.653875    0.659929   -1.388035
     23          1           0        2.360553   -1.468251   -1.864665
     24          1           0        3.915610   -1.123389   -1.042765
     25          6           0        1.203646    1.049047   -1.206685
     26          1           0        3.280716    1.226896   -0.693364
     27          1           0        2.987273    0.896778   -2.405911
     28          6           0        0.922316    2.356550   -0.529523
     29          1           0        0.547342    0.792002   -2.036699
     30          1           0        1.257605    2.308787    0.517550
     31          1           0        1.564590    3.125601   -0.993202
     32          6           0       -0.531089    2.819632   -0.618716
     33          6           0       -0.760311    4.135129    0.120364
     34          1           0       -1.198520    2.045648   -0.220814
     35          1           0       -0.797744    2.935277   -1.676382
     36          1           0       -1.800077    4.463014    0.038252
     37          1           0       -0.521831    4.033855    1.185205
     38          1           0       -0.122297    4.926644   -0.286826
 ---------------------------------------------------------------------
                    Distance matrix (angstroms):
                    1          2          3          4          5
     1  C    0.000000
     2  C    1.405759   0.000000
     3  C    2.439289   1.415346   0.000000
     4  C    2.866680   2.468163   1.397248   0.000000
     5  C    2.440694   2.780301   2.367179   1.387120   0.000000
     6  C    1.383522   2.388874   2.752803   2.445317   1.412493
     7  H    1.084873   2.166400   3.426076   3.951540   3.432489
     8  H    3.951742   3.455305   2.174543   1.085067   2.164245
     9  H    3.409343   3.865046   3.358342   2.137818   1.085088
    10  H    2.138049   3.378364   3.837528   3.412367   2.157114
    11  N    3.560358   2.230024   1.374278   2.523677   3.702407
    12  N    2.512944   1.366469   2.282674   3.609484   4.128721
    13  C    3.526455   2.142997   2.201458   3.580398   4.496591
    14  C    4.890787   3.637060   2.491607   3.098654   4.465921
    15  H    5.176464   4.036429   2.815815   3.123137   4.466091
    16  H    5.155357   4.026015   2.775066   3.052440   4.401929
    17  H    5.648404   4.301140   3.368632   4.149988   5.496712
    18  S    5.101276   3.786831   3.875313   5.209616   6.186507
    19  O    5.267424   4.123630   4.375849   5.647075   6.485909
    20  O    6.155281   4.764509   4.449755   5.628955   6.805660
    21  C    5.595061   4.445933   4.892059   6.275809   7.092346
    22  C    5.808079   4.647330   4.899188   6.181145   7.053291
    23  H    5.048486   4.088587   4.836113   6.221264   6.845679
    24  H    6.604921   5.466913   5.887892   7.271051   8.118736
    25  C    4.736416   3.594492   3.710914   4.886372   5.735608
    26  H    6.649148   5.399386   5.411640   6.634210   7.645667
    27  H    6.297222   5.288756   5.703678   6.960253   7.713603
    28  C    5.465800   4.334724   3.993068   4.880163   5.869878
    29  H    4.110172   3.203199   3.635523   4.760363   5.368949
    30  H    5.901940   4.644889   4.057189   4.915509   6.080336
    31  H    6.414755   5.342007   5.083669   5.941849   6.887168
    32  C    5.040271   4.154195   3.657997   4.167566   5.016723
    33  C    6.302008   5.457586   4.698322   4.887955   5.789555
    34  H    4.168380   3.302814   2.652064   3.071822   3.948936
    35  H    4.995472   4.333182   4.137079   4.627445   5.219553
    36  H    6.367332   5.722212   4.933893   4.837693   5.564953
    37  H    6.617225   5.650504   4.685364   4.834528   5.910222
    38  H    7.166159   6.309178   5.663720   5.950145   6.827283
                    6          7          8          9         10
     6  C    0.000000
     7  H    2.162046   0.000000
     8  H    3.435800   5.036597   0.000000
     9  H    2.159215   4.312916   2.487082   0.000000
    10  H    1.085118   2.490581   4.313527   2.463889   0.000000
    11  N    4.100995   4.395988   2.876273   4.631540   5.185136
    12  N    3.706895   2.834770   4.456537   5.213260   4.628331
    13  C    4.475753   4.067446   4.154007   5.532717   5.504230
    14  C    5.196299   5.796174   2.910971   5.195268   6.269870
    15  H    5.324380   6.123646   2.754461   5.080149   6.362031
    16  H    5.280261   6.113744   2.661281   5.005688   6.316611
    17  H    6.119514   6.458133   3.994826   6.264918   7.203005
    18  S    6.141608   5.462788   5.644675   7.207997   7.141924
    19  O    6.325916   5.516381   6.145611   7.494288   7.252938
    20  O    7.026363   6.668420   5.799659   7.743920   8.081674
    21  C    6.805863   5.698522   6.836333   8.155304   7.719072
    22  C    6.895694   6.021509   6.646710   8.065436   7.825430
    23  H    6.352290   4.971841   6.928055   7.927821   7.177025
    24  H    7.833072   6.659246   7.788558   9.180836   8.738591
    25  C    5.674036   5.110506   5.357068   6.707678   6.616893
    26  H    7.652371   6.963888   6.943857   8.618370   8.630100
    27  H    7.428090   6.366918   7.486358   8.722571   8.280353
    28  C    6.119824   6.032697   5.078567   6.703318   7.083618
    29  H    5.098460   4.352725   5.395962   6.348500   5.947926
    30  H    6.498972   6.564832   4.939457   6.885135   7.523831
    31  H    7.094087   6.897297   6.111993   7.693363   8.015787
    32  C    5.398338   5.716799   4.311680   5.708903   6.287717
    33  C    6.429097   7.066489   4.707507   6.275636   7.281863
    34  H    4.418022   4.962835   3.271205   4.662670   5.347391
    35  H    5.385807   5.525379   4.932564   5.901473   6.157345
    36  H    6.279682   7.160227   4.601022   5.887465   7.031135
    37  H    6.708545   7.466402   4.461971   6.369295   7.625748
    38  H    7.381785   7.849103   5.798145   7.327617   8.212885
                   11         12         13         14         15
    11  N    0.000000
    12  N    2.271057   0.000000
    13  C    1.390372   1.338659   0.000000
    14  C    1.456089   3.691301   2.587772   0.000000
    15  H    2.099596   4.248951   3.229536   1.095075   0.000000
    16  H    2.083432   4.265001   3.309930   1.092974   1.781741
    17  H    2.088275   4.020040   2.734251   1.086695   1.787613
    18  S    2.799016   2.670629   1.807918   3.411542   4.239379
    19  O    3.546992   3.083008   2.682359   4.243152   5.223874
    20  O    3.125522   3.855469   2.664267   3.070191   3.826703
    21  C    4.000706   3.125616   2.715420   4.753809   5.336792
    22  C    3.988504   3.536303   2.937694   4.556571   4.838291
    23  H    4.218469   2.736768   2.831593   5.234588   5.824083
    24  H    4.919182   4.129380   3.690693   5.525879   6.157399
    25  C    2.987018   2.812289   2.216624   3.664215   3.758145
    26  H    4.316220   4.350812   3.485665   4.539744   4.780281
    27  H    4.936739   4.187627   3.845086   5.574385   5.764914
    28  C    3.220851   3.910298   3.073693   3.358597   3.052839
    29  H    3.306581   2.546813   2.494532   4.258963   4.307779
    30  H    3.021222   4.208418   3.095571   2.734622   2.489651
    31  H    4.312059   4.829805   4.050799   4.361015   3.990953
    32  C    3.355904   4.210701   3.628071   3.512384   2.863257
    33  C    4.363598   5.627230   4.905120   4.041421   3.095610
    34  H    2.592240   3.622597   3.129168   2.907184   2.326624
    35  H    4.068552   4.409863   4.123012   4.479269   3.894067
    36  H    4.878342   6.120068   5.549898   4.610808   3.598955
    37  H    4.173528   5.804673   4.895864   3.499698   2.491716
    38  H    5.225984   6.326398   5.586573   4.894226   4.005064
                   16         17         18         19         20
    16  H    0.000000
    17  H    1.779016   0.000000
    18  S    4.034476   2.959340   0.000000
    19  O    4.557697   3.900190   1.463132   0.000000
    20  O    3.706015   2.214626   1.468860   2.519214   0.000000
    21  C    5.568134   4.308802   1.785057   2.688079   2.653320
    22  C    5.549614   4.131445   2.638105   3.927002   2.962389
    23  H    5.998157   4.979867   2.338945   2.852190   3.537803
    24  H    6.286382   4.926066   2.352172   2.946024   2.934626
    25  C    4.702916   3.566159   2.891168   4.221869   3.264254
    26  H    5.530327   3.904988   2.896793   4.248463   2.661921
    27  H    6.588401   5.195803   3.621894   4.783391   4.021176
    28  C    4.445269   3.278907   3.827459   5.238466   3.669197
    29  H    5.233165   4.377778   3.507158   4.641008   4.176661
    30  H    3.799032   2.421948   3.566192   4.973073   3.027052
    31  H    5.444116   4.144140   4.546895   5.995867   4.276792
    32  C    4.472655   3.858141   4.878602   6.162287   4.847863
    33  C    4.872498   4.350507   6.019609   7.329419   5.679677
    34  H    3.750236   3.520462   4.636940   5.763364   4.750481
    35  H    5.422686   4.852131   5.436474   6.686351   5.607609
    36  H    5.302341   5.105086   6.846734   8.084049   6.601412
    37  H    4.237468   3.737183   5.859210   7.132514   5.306009
    38  H    5.781086   5.021710   6.514500   7.901719   6.092182
                   21         22         23         24         25
    21  C    0.000000
    22  C    1.527525   0.000000
    23  H    1.092924   2.200537   0.000000
    24  H    1.092550   2.211653   1.792387   0.000000
    25  C    2.511437   1.512437   2.847483   3.478663   0.000000
    26  H    2.145379   1.094052   3.079361   2.459474   2.146939
    27  H    2.148556   1.096961   2.505811   2.607883   2.154682
    28  C    3.782920   2.571743   4.298864   4.618788   1.499086
    29  H    2.971295   2.208096   2.902770   4.000232   1.088912
    30  H    3.896266   2.880895   4.599724   4.612961   2.136081
    31  H    4.168148   2.724330   4.743046   4.856302   2.118474
    32  C    5.014200   3.924304   5.319767   5.958218   2.547545
    33  C    6.276788   5.099897   6.714015   7.132259   3.891284
    34  H    5.063600   4.257179   5.264668   6.072292   2.781287
    35  H    5.282986   4.144156   5.422301   6.252195   2.789989
    36  H    7.154506   6.027888   7.490784   8.065084   4.714593
    37  H    6.366829   5.300005   6.919755   7.159043   4.196128
    38  H    6.542847   5.208133   7.039091   7.312936   4.200003
                   26         27         28         29         30
    26  H    0.000000
    27  H    1.768588   0.000000
    28  C    2.620117   3.148938   0.000000
    29  H    3.076526   2.469931   2.204540   0.000000
    30  H    2.594182   3.678606   1.100483   3.054390   0.000000
    31  H    2.576834   2.997904   1.104062   2.751248   1.744648
    32  C    4.131856   4.389796   1.528001   2.699069   2.179791
    33  C    5.044787   5.559979   2.533166   4.188004   2.750503
    34  H    4.577905   4.859569   2.165619   2.813734   2.578173
    35  H    4.529760   4.360510   2.146816   2.555917   3.070877
    36  H    6.068128   6.450635   3.488694   4.826192   3.770920
    37  H    5.086001   5.920403   2.799858   4.693976   2.566713
    38  H    5.043204   5.513598   2.784870   4.539354   3.066647
                   31         32         33         34         35
    31  H    0.000000
    32  C    2.150750   0.000000
    33  C    2.768455   1.526209   0.000000
    34  H    3.065560   1.096741   2.162027   0.000000
    35  H    2.466491   1.096876   2.160866   1.752353   0.000000
    36  H    3.764778   2.177761   1.093327   2.504525   2.505718
    37  H    3.150164   2.174524   1.095909   2.527403   3.077610
    38  H    2.566770   2.171811   1.095154   3.076159   2.520444
                   36         37         38
    36  H    0.000000
    37  H    1.770195   0.000000
    38  H    1.770755   1.767364   0.000000
 Stoichiometry    C14H19N2O2S(2)
 Framework group  C1[X(C14H19N2O2S)]
 Deg. of freedom   108
 Full point group                 C1      NOp   1
 Largest Abelian subgroup         C1      NOp   1
 Largest concise Abelian subgroup C1      NOp   1
                         Standard orientation:                         
 ---------------------------------------------------------------------
 Center     Atomic      Atomic             Coordinates (Angstroms)
 Number     Number       Type             X           Y           Z
 ---------------------------------------------------------------------
      1          6           0       -2.657444   -1.690117   -1.357032
      2          6           0       -1.536935   -1.210776   -0.656426
      3          6           0       -1.720424   -0.446592    0.520672
      4          6           0       -2.984236   -0.123349    1.021266
      5          6           0       -4.072767   -0.609326    0.312021
      6          6           0       -3.911001   -1.382824   -0.858735
      7          1           0       -2.528800   -2.279526   -2.258695
      8          1           0       -3.108640    0.473101    1.919120
      9          1           0       -5.075204   -0.389191    0.664267
     10          1           0       -4.794836   -1.738811   -1.377955
     11          7           0       -0.461039   -0.133841    0.973195
     12          7           0       -0.204579   -1.367850   -0.916025
     13          6           0        0.413714   -0.626167    0.011136
     14          6           0       -0.214718    0.684440    2.152151
     15          1           0       -0.636536    1.684661    2.007872
     16          1           0       -0.696603    0.215160    3.013635
     17          1           0        0.855077    0.753623    2.330081
     18         16           0        2.088042   -1.158446    0.437600
     19          8           0        2.088464   -2.589162    0.743881
     20          8           0        2.628295   -0.228371    1.437919
     21          6           0        2.866857   -0.831351   -1.134941
     22          6           0        2.653875    0.659929   -1.388035
     23          1           0        2.360553   -1.468251   -1.864665
     24          1           0        3.915610   -1.123389   -1.042765
     25          6           0        1.203646    1.049047   -1.206685
     26          1           0        3.280716    1.226896   -0.693364
     27          1           0        2.987273    0.896778   -2.405911
     28          6           0        0.922316    2.356550   -0.529523
     29          1           0        0.547342    0.792002   -2.036699
     30          1           0        1.257605    2.308787    0.517550
     31          1           0        1.564590    3.125601   -0.993202
     32          6           0       -0.531089    2.819632   -0.618716
     33          6           0       -0.760311    4.135129    0.120364
     34          1           0       -1.198520    2.045648   -0.220814
     35          1           0       -0.797744    2.935277   -1.676382
     36          1           0       -1.800077    4.463014    0.038252
     37          1           0       -0.521831    4.033855    1.185205
     38          1           0       -0.122297    4.926644   -0.286826
 ---------------------------------------------------------------------
 Rotational constants (GHZ):           0.4743317           0.3160368           0.2438463
 Standard basis: 6-31G(d) (6D, 7F)
 There are   327 symmetry adapted cartesian basis functions of A   symmetry.
 There are   327 symmetry adapted basis functions of A   symmetry.
   327 basis functions,   632 primitive gaussians,   327 cartesian basis functions
    75 alpha electrons       74 beta electrons
       nuclear repulsion energy      1723.5355858705 Hartrees.
 NAtoms=   38 NActive=   38 NUniq=   38 SFac= 1.00D+00 NAtFMM=   60 NAOKFM=F Big=F
 Integral buffers will be    131072 words long.
 Raffenetti 2 integral format.
 Two-electron integral symmetry is turned on.
 One-electron integrals computed using PRISM.
 NBasis=   327 RedAO= T EigKep=  3.77D-04  NBF=   327
 NBsUse=   327 1.00D-06 EigRej= -1.00D+00 NBFU=   327
 ExpMin= 1.17D-01 ExpMax= 2.19D+04 ExpMxC= 3.30D+03 IAcc=3 IRadAn=         5 AccDes= 0.00D+00
 Harris functional with IExCor= 1009 and IRadAn=       5 diagonalized for initial guess.
 HarFok:  IExCor= 1009 AccDes= 0.00D+00 IRadAn=         5 IDoV= 1 UseB2=F ITyADJ=14
 ICtDFT=  3500011 ScaDFX=  1.000000  1.000000  1.000000  1.000000
 FoFCou: FMM=F IPFlag=           0 FMFlag=      100000 FMFlg1=           0
         NFxFlg=           0 DoJE=T BraDBF=F KetDBF=T FulRan=T
         wScrn=  0.000000 ICntrl=       500 IOpCl=  0 I1Cent=   200000004 NGrid=           0
         NMat0=    1 NMatS0=      1 NMatT0=    0 NMatD0=    1 NMtDS0=    0 NMtDT0=    0
 Petite list used in FoFCou.
 Initial guess <Sx>= 0.0000 <Sy>= 0.0000 <Sz>= 0.5000 <S**2>= 0.7500 S= 0.5000
 Requested convergence on RMS density matrix=1.00D-08 within 128 cycles.
 Requested convergence on MAX density matrix=1.00D-06.
 Requested convergence on             energy=1.00D-06.
 No special actions if energy rises.
 Integral accuracy reduced to 1.0D-05 until final iterations.
 Initial convergence to 1.0D-05 achieved.  Increase integral accuracy.
 SCF Done:  E(UM062X) =  -1202.56324666     A.U. after   20 cycles
            NFock= 20  Conv=0.68D-08     -V/T= 2.0068
 <Sx>= 0.0000 <Sy>= 0.0000 <Sz>= 0.5000 <S**2>= 0.7769 S= 0.5133
 <L.S>=  0.00000000000    
 Annihilation of the first spin contaminant:
 S**2 before annihilation     0.7769,   after     0.7503
 DoSCS=F DFT=T ScalE2(SS,OS)=  1.000000  1.000000
 Range of M.O.s used for correlation:     1   327
 NBasis=   327 NAE=    75 NBE=    74 NFC=     0 NFV=     0
 NROrb=    327 NOA=    75 NOB=    74 NVA=   252 NVB=   253
 Symmetrizing basis deriv contribution to polar:
 IMax=3 JMax=2 DiffMx= 0.00D+00
 G2DrvN: will do    20 centers at a time, making    2 passes.
 Calling FoFCou, ICntrl=  3107 FMM=F I1Cent=   0 AccDes= 0.00D+00.
 Calling FoFCou, ICntrl=  3107 FMM=F I1Cent=   0 AccDes= 0.00D+00.
 End of G2Drv F.D. properties file   721 does not exist.
 End of G2Drv F.D. properties file   722 does not exist.
 End of G2Drv F.D. properties file   788 does not exist.
          IDoAtm=11111111111111111111111111111111111111
          Differentiating once with respect to nuclear coordinates.
 CalDSu exits because no D1Ps are significant.
          There are   117 degrees of freedom in the 1st order CPHF.  IDoFFX=6 NUNeed=     0.
    114 vectors produced by pass  0 Test12= 3.76D-14 1.00D-09 XBig12= 4.00D-01 1.29D-01.
 AX will form    38 AO Fock derivatives at one time.
    111 vectors produced by pass  1 Test12= 3.76D-14 1.00D-09 XBig12= 7.67D-02 6.93D-02.
    111 vectors produced by pass  2 Test12= 3.76D-14 1.00D-09 XBig12= 2.44D-03 8.56D-03.
    111 vectors produced by pass  3 Test12= 3.76D-14 1.00D-09 XBig12= 3.59D-05 8.59D-04.
    111 vectors produced by pass  4 Test12= 3.76D-14 1.00D-09 XBig12= 3.55D-07 7.39D-05.
    111 vectors produced by pass  5 Test12= 3.76D-14 1.00D-09 XBig12= 2.82D-09 3.65D-06.
    101 vectors produced by pass  6 Test12= 3.76D-14 1.00D-09 XBig12= 1.73D-11 3.28D-07.
     39 vectors produced by pass  7 Test12= 3.76D-14 1.00D-09 XBig12= 9.85D-14 2.15D-08.
      2 vectors produced by pass  8 Test12= 3.76D-14 1.00D-09 XBig12= 5.30D-16 1.42D-09.
 InvSVY:  IOpt=1 It=  1 EMax= 6.11D-16
 Solved reduced A of dimension   811 with   117 vectors.
 End of Minotr F.D. properties file   721 does not exist.
 End of Minotr F.D. properties file   722 does not exist.
 End of Minotr F.D. properties file   788 does not exist.

 **********************************************************************

            Population analysis using the SCF Density.

 **********************************************************************

 Orbital symmetries:
 Alpha Orbitals:
       Occupied  (A) (A) (A) (A) (A) (A) (A) (A) (A) (A) (A) (A)
                 (A) (A) (A) (A) (A) (A) (A) (A) (A) (A) (A) (A)
                 (A) (A) (A) (A) (A) (A) (A) (A) (A) (A) (A) (A)
                 (A) (A) (A) (A) (A) (A) (A) (A) (A) (A) (A) (A)
                 (A) (A) (A) (A) (A) (A) (A) (A) (A) (A) (A) (A)
                 (A) (A) (A) (A) (A) (A) (A) (A) (A) (A) (A) (A)
                 (A) (A) (A)
       Virtual   (A) (A) (A) (A) (A) (A) (A) (A) (A) (A) (A) (A)
                 (A) (A) (A) (A) (A) (A) (A) (A) (A) (A) (A) (A)
                 (A) (A) (A) (A) (A) (A) (A) (A) (A) (A) (A) (A)
                 (A) (A) (A) (A) (A) (A) (A) (A) (A) (A) (A) (A)
                 (A) (A) (A) (A) (A) (A) (A) (A) (A) (A) (A) (A)
                 (A) (A) (A) (A) (A) (A) (A) (A) (A) (A) (A) (A)
                 (A) (A) (A) (A) (A) (A) (A) (A) (A) (A) (A) (A)
                 (A) (A) (A) (A) (A) (A) (A) (A) (A) (A) (A) (A)
                 (A) (A) (A) (A) (A) (A) (A) (A) (A) (A) (A) (A)
                 (A) (A) (A) (A) (A) (A) (A) (A) (A) (A) (A) (A)
                 (A) (A) (A) (A) (A) (A) (A) (A) (A) (A) (A) (A)
                 (A) (A) (A) (A) (A) (A) (A) (A) (A) (A) (A) (A)
                 (A) (A) (A) (A) (A) (A) (A) (A) (A) (A) (A) (A)
                 (A) (A) (A) (A) (A) (A) (A) (A) (A) (A) (A) (A)
                 (A) (A) (A) (A) (A) (A) (A) (A) (A) (A) (A) (A)
                 (A) (A) (A) (A) (A) (A) (A) (A) (A) (A) (A) (A)
                 (A) (A) (A) (A) (A) (A) (A) (A) (A) (A) (A) (A)
                 (A) (A) (A) (A) (A) (A) (A) (A) (A) (A) (A) (A)
                 (A) (A) (A) (A) (A) (A) (A) (A) (A) (A) (A) (A)
                 (A) (A) (A) (A) (A) (A) (A) (A) (A) (A) (A) (A)
                 (A) (A) (A) (A) (A) (A) (A) (A) (A) (A) (A) (A)
 Beta  Orbitals:
       Occupied  (A) (A) (A) (A) (A) (A) (A) (A) (A) (A) (A) (A)
                 (A) (A) (A) (A) (A) (A) (A) (A) (A) (A) (A) (A)
                 (A) (A) (A) (A) (A) (A) (A) (A) (A) (A) (A) (A)
                 (A) (A) (A) (A) (A) (A) (A) (A) (A) (A) (A) (A)
                 (A) (A) (A) (A) (A) (A) (A) (A) (A) (A) (A) (A)
                 (A) (A) (A) (A) (A) (A) (A) (A) (A) (A) (A) (A)
                 (A) (A)
       Virtual   (A) (A) (A) (A) (A) (A) (A) (A) (A) (A) (A) (A)
                 (A) (A) (A) (A) (A) (A) (A) (A) (A) (A) (A) (A)
                 (A) (A) (A) (A) (A) (A) (A) (A) (A) (A) (A) (A)
                 (A) (A) (A) (A) (A) (A) (A) (A) (A) (A) (A) (A)
                 (A) (A) (A) (A) (A) (A) (A) (A) (A) (A) (A) (A)
                 (A) (A) (A) (A) (A) (A) (A) (A) (A) (A) (A) (A)
                 (A) (A) (A) (A) (A) (A) (A) (A) (A) (A) (A) (A)
                 (A) (A) (A) (A) (A) (A) (A) (A) (A) (A) (A) (A)
                 (A) (A) (A) (A) (A) (A) (A) (A) (A) (A) (A) (A)
                 (A) (A) (A) (A) (A) (A) (A) (A) (A) (A) (A) (A)
                 (A) (A) (A) (A) (A) (A) (A) (A) (A) (A) (A) (A)
                 (A) (A) (A) (A) (A) (A) (A) (A) (A) (A) (A) (A)
                 (A) (A) (A) (A) (A) (A) (A) (A) (A) (A) (A) (A)
                 (A) (A) (A) (A) (A) (A) (A) (A) (A) (A) (A) (A)
                 (A) (A) (A) (A) (A) (A) (A) (A) (A) (A) (A) (A)
                 (A) (A) (A) (A) (A) (A) (A) (A) (A) (A) (A) (A)
                 (A) (A) (A) (A) (A) (A) (A) (A) (A) (A) (A) (A)
                 (A) (A) (A) (A) (A) (A) (A) (A) (A) (A) (A) (A)
                 (A) (A) (A) (A) (A) (A) (A) (A) (A) (A) (A) (A)
                 (A) (A) (A) (A) (A) (A) (A) (A) (A) (A) (A) (A)
                 (A) (A) (A) (A) (A) (A) (A) (A) (A) (A) (A) (A)
                 (A)
 The electronic state is 2-A.
 Alpha  occ. eigenvalues --  -90.13756 -19.63443 -19.63027 -14.83001 -14.75730
 Alpha  occ. eigenvalues --  -10.64742 -10.59445 -10.59403 -10.59061 -10.58041
 Alpha  occ. eigenvalues --  -10.57994 -10.57340 -10.56279 -10.55933 -10.55689
 Alpha  occ. eigenvalues --  -10.55556 -10.55306 -10.54973 -10.54210  -8.45258
 Alpha  occ. eigenvalues --   -6.37406  -6.37382  -6.37297  -1.22326  -1.14420
 Alpha  occ. eigenvalues --   -1.11241  -1.01291  -0.95794  -0.94219  -0.90224
 Alpha  occ. eigenvalues --   -0.85570  -0.84800  -0.83644  -0.82025  -0.77982
 Alpha  occ. eigenvalues --   -0.74915  -0.69766  -0.68921  -0.67751  -0.66817
 Alpha  occ. eigenvalues --   -0.65530  -0.60258  -0.59111  -0.58831  -0.57587
 Alpha  occ. eigenvalues --   -0.56520  -0.54212  -0.53637  -0.53065  -0.51793
 Alpha  occ. eigenvalues --   -0.51458  -0.50668  -0.50465  -0.49713  -0.48620
 Alpha  occ. eigenvalues --   -0.48036  -0.47450  -0.46728  -0.46190  -0.43304
 Alpha  occ. eigenvalues --   -0.42992  -0.42457  -0.41698  -0.40851  -0.40262
 Alpha  occ. eigenvalues --   -0.39946  -0.39341  -0.38652  -0.37299  -0.36864
 Alpha  occ. eigenvalues --   -0.36305  -0.34739  -0.30819  -0.28717  -0.22109
 Alpha virt. eigenvalues --    0.01025   0.04696   0.06843   0.09289   0.11062
 Alpha virt. eigenvalues --    0.12299   0.13131   0.13811   0.14748   0.15700
 Alpha virt. eigenvalues --    0.15894   0.16597   0.16997   0.18447   0.18731
 Alpha virt. eigenvalues --    0.19134   0.19428   0.20127   0.20567   0.20948
 Alpha virt. eigenvalues --    0.21302   0.22243   0.22576   0.22691   0.22805
 Alpha virt. eigenvalues --    0.23504   0.24235   0.25860   0.26429   0.27086
 Alpha virt. eigenvalues --    0.29473   0.30173   0.30759   0.31306   0.32211
 Alpha virt. eigenvalues --    0.32688   0.35444   0.36080   0.38185   0.40355
 Alpha virt. eigenvalues --    0.41733   0.43102   0.45293   0.49027   0.51578
 Alpha virt. eigenvalues --    0.51755   0.52251   0.53774   0.55500   0.56428
 Alpha virt. eigenvalues --    0.57333   0.58049   0.58617   0.59483   0.59565
 Alpha virt. eigenvalues --    0.61103   0.61374   0.62305   0.63242   0.64162
 Alpha virt. eigenvalues --    0.64810   0.65684   0.65984   0.66896   0.68074
 Alpha virt. eigenvalues --    0.68704   0.69090   0.69846   0.71149   0.72140
 Alpha virt. eigenvalues --    0.73762   0.73984   0.75272   0.76614   0.78129
 Alpha virt. eigenvalues --    0.79307   0.81853   0.82996   0.83985   0.84650
 Alpha virt. eigenvalues --    0.85344   0.86099   0.86791   0.87539   0.89321
 Alpha virt. eigenvalues --    0.90002   0.90516   0.90769   0.91263   0.91623
 Alpha virt. eigenvalues --    0.92304   0.92768   0.93863   0.94188   0.94952
 Alpha virt. eigenvalues --    0.96163   0.96632   0.96814   0.97386   0.98789
 Alpha virt. eigenvalues --    0.99500   1.00113   1.00900   1.01050   1.02369
 Alpha virt. eigenvalues --    1.03024   1.03373   1.04658   1.05584   1.06876
 Alpha virt. eigenvalues --    1.08281   1.08981   1.09690   1.11054   1.12923
 Alpha virt. eigenvalues --    1.13910   1.15588   1.16095   1.16664   1.17408
 Alpha virt. eigenvalues --    1.20025   1.21025   1.23125   1.24009   1.24793
 Alpha virt. eigenvalues --    1.28122   1.28691   1.30417   1.32057   1.34779
 Alpha virt. eigenvalues --    1.35336   1.38210   1.38928   1.41004   1.44086
 Alpha virt. eigenvalues --    1.44595   1.46206   1.47999   1.49418   1.50246
 Alpha virt. eigenvalues --    1.52135   1.53394   1.54320   1.55351   1.57258
 Alpha virt. eigenvalues --    1.59860   1.64127   1.67236   1.68166   1.72228
 Alpha virt. eigenvalues --    1.74438   1.76395   1.78475   1.80200   1.83334
 Alpha virt. eigenvalues --    1.84654   1.85737   1.86322   1.87062   1.87954
 Alpha virt. eigenvalues --    1.88880   1.89299   1.90324   1.91897   1.93268
 Alpha virt. eigenvalues --    1.93515   1.94316   1.95542   1.97790   1.99353
 Alpha virt. eigenvalues --    2.00068   2.01252   2.01782   2.03084   2.04290
 Alpha virt. eigenvalues --    2.04866   2.05652   2.06254   2.06737   2.08035
 Alpha virt. eigenvalues --    2.08885   2.12149   2.12829   2.13715   2.16054
 Alpha virt. eigenvalues --    2.17849   2.19285   2.19923   2.21275   2.22280
 Alpha virt. eigenvalues --    2.23127   2.26110   2.26657   2.26905   2.28239
 Alpha virt. eigenvalues --    2.29501   2.30731   2.31378   2.33251   2.34510
 Alpha virt. eigenvalues --    2.35261   2.39695   2.40306   2.40918   2.41776
 Alpha virt. eigenvalues --    2.45981   2.46977   2.48579   2.50857   2.54589
 Alpha virt. eigenvalues --    2.55826   2.57675   2.60434   2.61381   2.62578
 Alpha virt. eigenvalues --    2.66427   2.68378   2.68841   2.69898   2.71642
 Alpha virt. eigenvalues --    2.75176   2.78338   2.80030   2.81685   2.82911
 Alpha virt. eigenvalues --    2.86236   2.88882   2.92835   2.97216   3.05906
 Alpha virt. eigenvalues --    3.14255   3.24587   3.46426   3.92072   4.01819
 Alpha virt. eigenvalues --    4.10042   4.11153   4.12474   4.15482   4.21215
 Alpha virt. eigenvalues --    4.21826   4.25342   4.31307   4.36807   4.38795
 Alpha virt. eigenvalues --    4.42473   4.44823   4.45887   4.51246   4.59347
 Alpha virt. eigenvalues --    4.67685   4.80635
  Beta  occ. eigenvalues --  -90.13717 -19.63430 -19.63015 -14.82882 -14.75420
  Beta  occ. eigenvalues --  -10.64908 -10.59451 -10.59360 -10.59030 -10.58038
  Beta  occ. eigenvalues --  -10.57470 -10.57374 -10.56301 -10.55876 -10.55725
  Beta  occ. eigenvalues --  -10.55513 -10.55319 -10.54971 -10.54211  -8.45237
  Beta  occ. eigenvalues --   -6.37372  -6.37309  -6.37287  -1.22265  -1.14087
  Beta  occ. eigenvalues --   -1.11202  -1.00704  -0.95566  -0.93639  -0.90036
  Beta  occ. eigenvalues --   -0.85463  -0.84645  -0.83032  -0.81844  -0.77778
  Beta  occ. eigenvalues --   -0.74618  -0.69557  -0.68732  -0.67619  -0.65779
  Beta  occ. eigenvalues --   -0.65230  -0.60120  -0.58881  -0.58464  -0.57316
  Beta  occ. eigenvalues --   -0.56240  -0.53895  -0.53392  -0.52734  -0.51716
  Beta  occ. eigenvalues --   -0.51180  -0.50556  -0.50140  -0.49144  -0.48131
  Beta  occ. eigenvalues --   -0.47939  -0.47125  -0.46381  -0.45787  -0.43150
  Beta  occ. eigenvalues --   -0.42684  -0.42273  -0.41211  -0.40549  -0.40099
  Beta  occ. eigenvalues --   -0.39799  -0.39117  -0.38404  -0.36944  -0.36307
  Beta  occ. eigenvalues --   -0.35610  -0.34087  -0.29134  -0.27603
  Beta virt. eigenvalues --   -0.06372   0.03404   0.05331   0.08406   0.09363
  Beta virt. eigenvalues --    0.11118   0.12330   0.13241   0.13896   0.14892
  Beta virt. eigenvalues --    0.15794   0.15977   0.16686   0.17335   0.18533
  Beta virt. eigenvalues --    0.18887   0.19174   0.19532   0.20210   0.20642
  Beta virt. eigenvalues --    0.21096   0.21429   0.22596   0.22733   0.22824
  Beta virt. eigenvalues --    0.22883   0.23749   0.24364   0.26060   0.26589
  Beta virt. eigenvalues --    0.27341   0.29691   0.30464   0.31176   0.31587
  Beta virt. eigenvalues --    0.32822   0.33205   0.35531   0.36287   0.38355
  Beta virt. eigenvalues --    0.40478   0.41967   0.43174   0.45497   0.49320
  Beta virt. eigenvalues --    0.51722   0.51930   0.52398   0.54238   0.55649
  Beta virt. eigenvalues --    0.56627   0.57632   0.58361   0.58982   0.59661
  Beta virt. eigenvalues --    0.59967   0.61391   0.61505   0.62648   0.63565
  Beta virt. eigenvalues --    0.64337   0.65016   0.65833   0.66292   0.67320
  Beta virt. eigenvalues --    0.68387   0.69105   0.69265   0.70188   0.71689
  Beta virt. eigenvalues --    0.72472   0.73971   0.74277   0.75494   0.76765
  Beta virt. eigenvalues --    0.78717   0.79734   0.82197   0.83309   0.84192
  Beta virt. eigenvalues --    0.84897   0.85531   0.86419   0.86915   0.87894
  Beta virt. eigenvalues --    0.89416   0.90103   0.90726   0.90970   0.91447
  Beta virt. eigenvalues --    0.91791   0.92640   0.93227   0.94044   0.94357
  Beta virt. eigenvalues --    0.95111   0.96260   0.96780   0.97064   0.97488
  Beta virt. eigenvalues --    0.99161   0.99801   1.00486   1.01091   1.01233
  Beta virt. eigenvalues --    1.02575   1.03377   1.03559   1.05000   1.05899
  Beta virt. eigenvalues --    1.06970   1.08508   1.09210   1.10033   1.11347
  Beta virt. eigenvalues --    1.13225   1.14104   1.15707   1.16379   1.16901
  Beta virt. eigenvalues --    1.17840   1.20181   1.21237   1.23389   1.24284
  Beta virt. eigenvalues --    1.24915   1.28322   1.28868   1.30713   1.32180
  Beta virt. eigenvalues --    1.34940   1.35477   1.38438   1.39161   1.41238
  Beta virt. eigenvalues --    1.44403   1.45004   1.46709   1.48259   1.49701
  Beta virt. eigenvalues --    1.50439   1.52545   1.53689   1.54544   1.56058
  Beta virt. eigenvalues --    1.57416   1.60199   1.64557   1.67400   1.68933
  Beta virt. eigenvalues --    1.72601   1.74652   1.76739   1.78885   1.80411
  Beta virt. eigenvalues --    1.83970   1.84881   1.86103   1.86817   1.87298
  Beta virt. eigenvalues --    1.88377   1.89062   1.89653   1.90893   1.92173
  Beta virt. eigenvalues --    1.93591   1.93801   1.94564   1.95907   1.98052
  Beta virt. eigenvalues --    1.99698   2.00611   2.01354   2.01995   2.03290
  Beta virt. eigenvalues --    2.04806   2.05286   2.05930   2.06874   2.06950
  Beta virt. eigenvalues --    2.08830   2.09411   2.12371   2.13059   2.13784
  Beta virt. eigenvalues --    2.16390   2.18773   2.19412   2.20035   2.21677
  Beta virt. eigenvalues --    2.22697   2.24055   2.26607   2.26904   2.27401
  Beta virt. eigenvalues --    2.29116   2.29753   2.31068   2.31586   2.33864
  Beta virt. eigenvalues --    2.34700   2.36049   2.39941   2.40651   2.41182
  Beta virt. eigenvalues --    2.42103   2.46197   2.47473   2.48876   2.51686
  Beta virt. eigenvalues --    2.54803   2.55952   2.57917   2.61351   2.61826
  Beta virt. eigenvalues --    2.62805   2.66634   2.68558   2.70198   2.70489
  Beta virt. eigenvalues --    2.71997   2.75350   2.79083   2.81034   2.82957
  Beta virt. eigenvalues --    2.84907   2.86686   2.89121   2.92992   2.97405
  Beta virt. eigenvalues --    3.05886   3.14259   3.24963   3.46638   3.92127
  Beta virt. eigenvalues --    4.01978   4.10432   4.11432   4.12896   4.15868
  Beta virt. eigenvalues --    4.21238   4.22025   4.25412   4.31958   4.36945
  Beta virt. eigenvalues --    4.38666   4.42706   4.45209   4.46044   4.51436
  Beta virt. eigenvalues --    4.58952   4.69660   4.80800
          Condensed to atoms (all electrons):
               1          2          3          4          5          6
     1  C    4.967464   0.526907  -0.061064  -0.041567  -0.032571   0.545087
     2  C    0.526907   4.650592   0.480228  -0.041975  -0.039728  -0.015756
     3  C   -0.061064   0.480228   4.792312   0.497285  -0.003879  -0.040430
     4  C   -0.041567  -0.041975   0.497285   5.002670   0.536882  -0.041172
     5  C   -0.032571  -0.039728  -0.003879   0.536882   4.893012   0.525213
     6  C    0.545087  -0.015756  -0.040430  -0.041172   0.525213   4.905968
     7  H    0.356517  -0.029330   0.006168   0.000147   0.004001  -0.041199
     8  H    0.000274   0.003393  -0.032910   0.359567  -0.035041   0.003623
     9  H    0.003480   0.001007   0.002313  -0.035305   0.368039  -0.035378
    10  H   -0.034385   0.002509   0.000803   0.004027  -0.037628   0.369607
    11  N    0.010581  -0.046334   0.269782  -0.093586   0.005576   0.000044
    12  N   -0.074535   0.379065  -0.071185   0.011381  -0.000366   0.004909
    13  C    0.005304  -0.081859  -0.094033   0.007744  -0.000100  -0.000195
    14  C   -0.000110   0.006647  -0.041694  -0.000431  -0.000103   0.000010
    15  H   -0.000000   0.000076  -0.003101   0.001784   0.000009  -0.000005
    16  H   -0.000009  -0.000265  -0.002882   0.002656   0.000030  -0.000001
    17  H    0.000004  -0.000135   0.002973   0.000111  -0.000001   0.000000
    18  S   -0.000512  -0.003008   0.002843  -0.000172   0.000004   0.000005
    19  O   -0.000007  -0.000199  -0.000021  -0.000001  -0.000000  -0.000000
    20  O    0.000000  -0.000141   0.000118   0.000001  -0.000000  -0.000000
    21  C    0.000021   0.000270  -0.000373  -0.000000  -0.000000   0.000000
    22  C    0.000006  -0.000131   0.000004   0.000001  -0.000000  -0.000000
    23  H   -0.000016   0.000065   0.000027  -0.000000   0.000000  -0.000000
    24  H   -0.000000   0.000005   0.000002  -0.000000   0.000000   0.000000
    25  C    0.000123   0.001547   0.001439   0.000128  -0.000004  -0.000006
    26  H   -0.000000   0.000002   0.000002  -0.000000   0.000000  -0.000000
    27  H    0.000000  -0.000003   0.000000   0.000000  -0.000000  -0.000000
    28  C   -0.000012  -0.000304  -0.000065  -0.000026   0.000001   0.000001
    29  H   -0.000094   0.001573   0.000825  -0.000037  -0.000000  -0.000005
    30  H   -0.000000  -0.000029  -0.000030  -0.000007   0.000000  -0.000000
    31  H    0.000000  -0.000005  -0.000005   0.000000  -0.000000   0.000000
    32  C    0.000009  -0.000041  -0.002640  -0.000885  -0.000025   0.000018
    33  C    0.000000   0.000012   0.000068   0.000024  -0.000001  -0.000000
    34  H   -0.000100  -0.000261   0.005888   0.003695  -0.000040  -0.000039
    35  H    0.000003   0.000015   0.000013  -0.000020   0.000002  -0.000000
    36  H   -0.000000   0.000000   0.000002   0.000012   0.000000  -0.000000
    37  H    0.000000   0.000001  -0.000002  -0.000003   0.000000  -0.000000
    38  H   -0.000000  -0.000000  -0.000000   0.000000  -0.000000   0.000000
               7          8          9         10         11         12
     1  C    0.356517   0.000274   0.003480  -0.034385   0.010581  -0.074535
     2  C   -0.029330   0.003393   0.001007   0.002509  -0.046334   0.379065
     3  C    0.006168  -0.032910   0.002313   0.000803   0.269782  -0.071185
     4  C    0.000147   0.359567  -0.035305   0.004027  -0.093586   0.011381
     5  C    0.004001  -0.035041   0.368039  -0.037628   0.005576  -0.000366
     6  C   -0.041199   0.003623  -0.035378   0.369607   0.000044   0.004909
     7  H    0.529862   0.000015  -0.000128  -0.004292  -0.000105  -0.001628
     8  H    0.000015   0.537745  -0.003921  -0.000139  -0.007093  -0.000126
     9  H   -0.000128  -0.003921   0.537579  -0.004346  -0.000115   0.000003
    10  H   -0.004292  -0.000139  -0.004346   0.538424   0.000004  -0.000090
    11  N   -0.000105  -0.007093  -0.000115   0.000004   7.119811  -0.089980
    12  N   -0.001628  -0.000126   0.000003  -0.000090  -0.089980   7.077407
    13  C   -0.000175  -0.000203   0.000004   0.000005   0.279213   0.314658
    14  C    0.000002   0.003943  -0.000000  -0.000000   0.251310   0.004295
    15  H    0.000000   0.000400   0.000001  -0.000000  -0.046097  -0.000082
    16  H    0.000000   0.000668   0.000000   0.000000  -0.040020  -0.000060
    17  H   -0.000000  -0.000005  -0.000000  -0.000000  -0.026664   0.000124
    18  S    0.000014   0.000004   0.000000  -0.000000  -0.022582  -0.015007
    19  O   -0.000000  -0.000000   0.000000   0.000000  -0.000395  -0.002694
    20  O    0.000000   0.000000   0.000000   0.000000   0.000029   0.001782
    21  C   -0.000001   0.000000   0.000000   0.000000   0.004131  -0.006659
    22  C   -0.000000  -0.000000   0.000000   0.000000   0.000617   0.001013
    23  H    0.000005   0.000000   0.000000  -0.000000   0.000106   0.007918
    24  H    0.000000   0.000000  -0.000000  -0.000000  -0.000033   0.000083
    25  C   -0.000003  -0.000002  -0.000000  -0.000000  -0.031067  -0.042235
    26  H    0.000000  -0.000000   0.000000  -0.000000  -0.000009  -0.000043
    27  H   -0.000000  -0.000000  -0.000000   0.000000  -0.000023  -0.000143
    28  C    0.000000   0.000002   0.000000   0.000000   0.001300   0.001196
    29  H    0.000025   0.000000   0.000000  -0.000000   0.000420   0.002803
    30  H    0.000000  -0.000002   0.000000   0.000000   0.000245   0.000110
    31  H    0.000000   0.000000  -0.000000  -0.000000  -0.000023  -0.000047
    32  C    0.000000  -0.000006  -0.000000   0.000000  -0.001733   0.000262
    33  C    0.000000   0.000002   0.000000  -0.000000   0.000051  -0.000001
    34  H   -0.000001   0.000116  -0.000003   0.000000  -0.004278  -0.000641
    35  H    0.000000  -0.000001   0.000000  -0.000000   0.000154  -0.000004
    36  H    0.000000   0.000002  -0.000000  -0.000000  -0.000005   0.000000
    37  H   -0.000000  -0.000002   0.000000  -0.000000   0.000006  -0.000000
    38  H    0.000000   0.000000  -0.000000   0.000000  -0.000006  -0.000000
              13         14         15         16         17         18
     1  C    0.005304  -0.000110  -0.000000  -0.000009   0.000004  -0.000512
     2  C   -0.081859   0.006647   0.000076  -0.000265  -0.000135  -0.003008
     3  C   -0.094033  -0.041694  -0.003101  -0.002882   0.002973   0.002843
     4  C    0.007744  -0.000431   0.001784   0.002656   0.000111  -0.000172
     5  C   -0.000100  -0.000103   0.000009   0.000030  -0.000001   0.000004
     6  C   -0.000195   0.000010  -0.000005  -0.000001   0.000000   0.000005
     7  H   -0.000175   0.000002   0.000000   0.000000  -0.000000   0.000014
     8  H   -0.000203   0.003943   0.000400   0.000668  -0.000005   0.000004
     9  H    0.000004  -0.000000   0.000001   0.000000  -0.000000   0.000000
    10  H    0.000005  -0.000000  -0.000000   0.000000  -0.000000  -0.000000
    11  N    0.279213   0.251310  -0.046097  -0.040020  -0.026664  -0.022582
    12  N    0.314658   0.004295  -0.000082  -0.000060   0.000124  -0.015007
    13  C    5.487015  -0.032790   0.000318   0.001965  -0.002276   0.091949
    14  C   -0.032790   5.070022   0.374996   0.382307   0.376182  -0.000737
    15  H    0.000318   0.374996   0.550984  -0.038057  -0.022882  -0.000028
    16  H    0.001965   0.382307  -0.038057   0.512176  -0.018191  -0.000128
    17  H   -0.002276   0.376182  -0.022882  -0.018191   0.422211  -0.000471
    18  S    0.091949  -0.000737  -0.000028  -0.000128  -0.000471  13.728282
    19  O   -0.055786  -0.000205  -0.000002   0.000015  -0.000084   0.495119
    20  O   -0.045144  -0.011623   0.000242   0.000119   0.015715   0.403619
    21  C   -0.057063  -0.000168   0.000011  -0.000001   0.000093   0.178312
    22  C   -0.018780   0.000006  -0.000013   0.000001  -0.000073  -0.026123
    23  H   -0.003301  -0.000005  -0.000000   0.000000  -0.000006  -0.010391
    24  H    0.002808   0.000001   0.000000  -0.000000   0.000001  -0.016680
    25  C    0.094875   0.000875   0.000604  -0.000103   0.000010  -0.019630
    26  H   -0.000556  -0.000012  -0.000005   0.000000  -0.000013  -0.001817
    27  H    0.000517  -0.000000   0.000000  -0.000000   0.000001   0.003970
    28  C   -0.008319  -0.001603  -0.002304   0.000194  -0.001136   0.000457
    29  H   -0.015223  -0.000095   0.000012   0.000002  -0.000002  -0.000262
    30  H   -0.003162   0.002386  -0.000865   0.000175   0.001053   0.001815
    31  H    0.000978  -0.000008   0.000037  -0.000002   0.000025   0.000001
    32  C    0.000496  -0.000874   0.000971   0.000047   0.000047  -0.000030
    33  C    0.000011  -0.001201   0.001006   0.000004   0.000011  -0.000001
    34  H    0.000210  -0.001978   0.002108  -0.000045   0.000012  -0.000026
    35  H   -0.000104   0.000060   0.000006   0.000000  -0.000003  -0.000003
    36  H   -0.000001   0.000026  -0.000050  -0.000000  -0.000000   0.000000
    37  H    0.000006  -0.000380   0.003073  -0.000004  -0.000019  -0.000002
    38  H   -0.000000   0.000022  -0.000013  -0.000000  -0.000000   0.000000
              19         20         21         22         23         24
     1  C   -0.000007   0.000000   0.000021   0.000006  -0.000016  -0.000000
     2  C   -0.000199  -0.000141   0.000270  -0.000131   0.000065   0.000005
     3  C   -0.000021   0.000118  -0.000373   0.000004   0.000027   0.000002
     4  C   -0.000001   0.000001  -0.000000   0.000001  -0.000000  -0.000000
     5  C   -0.000000  -0.000000  -0.000000  -0.000000   0.000000   0.000000
     6  C   -0.000000  -0.000000   0.000000  -0.000000  -0.000000   0.000000
     7  H   -0.000000   0.000000  -0.000001  -0.000000   0.000005   0.000000
     8  H   -0.000000   0.000000   0.000000  -0.000000   0.000000   0.000000
     9  H    0.000000   0.000000   0.000000   0.000000   0.000000  -0.000000
    10  H    0.000000   0.000000   0.000000   0.000000  -0.000000  -0.000000
    11  N   -0.000395   0.000029   0.004131   0.000617   0.000106  -0.000033
    12  N   -0.002694   0.001782  -0.006659   0.001013   0.007918   0.000083
    13  C   -0.055786  -0.045144  -0.057063  -0.018780  -0.003301   0.002808
    14  C   -0.000205  -0.011623  -0.000168   0.000006  -0.000005   0.000001
    15  H   -0.000002   0.000242   0.000011  -0.000013  -0.000000   0.000000
    16  H    0.000015   0.000119  -0.000001   0.000001   0.000000  -0.000000
    17  H   -0.000084   0.015715   0.000093  -0.000073  -0.000006   0.000001
    18  S    0.495119   0.403619   0.178312  -0.026123  -0.010391  -0.016680
    19  O    8.185305  -0.048369  -0.057294   0.002128  -0.000637   0.000488
    20  O   -0.048369   8.330336  -0.059419   0.000261   0.001625  -0.000467
    21  C   -0.057294  -0.059419   5.658885   0.279857   0.351599   0.364294
    22  C    0.002128   0.000261   0.279857   5.157917  -0.031070  -0.025489
    23  H   -0.000637   0.001625   0.351599  -0.031070   0.451921  -0.016259
    24  H    0.000488  -0.000467   0.364294  -0.025489  -0.016259   0.457825
    25  C    0.000460  -0.001384  -0.060386   0.339179  -0.001840   0.004066
    26  H   -0.000006   0.006199  -0.039952   0.385798   0.003832  -0.002894
    27  H   -0.000022   0.000127  -0.032634   0.367461  -0.004103  -0.001445
    28  C   -0.000003  -0.001178   0.003108  -0.039071   0.000031  -0.000095
    29  H   -0.000017   0.000066   0.000988  -0.037728   0.001726  -0.000112
    30  H    0.000001   0.002998  -0.000188  -0.002794   0.000005  -0.000007
    31  H    0.000000   0.000005   0.000072  -0.004617  -0.000003   0.000005
    32  C   -0.000000   0.000017  -0.000131   0.003894   0.000003   0.000001
    33  C   -0.000000   0.000000   0.000001  -0.000142   0.000000  -0.000000
    34  H    0.000000  -0.000000   0.000007   0.000051  -0.000000   0.000000
    35  H   -0.000000  -0.000000  -0.000002  -0.000010  -0.000000  -0.000000
    36  H    0.000000   0.000000  -0.000000   0.000001   0.000000   0.000000
    37  H    0.000000  -0.000001   0.000000  -0.000002  -0.000000   0.000000
    38  H    0.000000   0.000000   0.000000   0.000001  -0.000000   0.000000
              25         26         27         28         29         30
     1  C    0.000123  -0.000000   0.000000  -0.000012  -0.000094  -0.000000
     2  C    0.001547   0.000002  -0.000003  -0.000304   0.001573  -0.000029
     3  C    0.001439   0.000002   0.000000  -0.000065   0.000825  -0.000030
     4  C    0.000128  -0.000000   0.000000  -0.000026  -0.000037  -0.000007
     5  C   -0.000004   0.000000  -0.000000   0.000001  -0.000000   0.000000
     6  C   -0.000006  -0.000000  -0.000000   0.000001  -0.000005  -0.000000
     7  H   -0.000003   0.000000  -0.000000   0.000000   0.000025   0.000000
     8  H   -0.000002  -0.000000  -0.000000   0.000002   0.000000  -0.000002
     9  H   -0.000000   0.000000  -0.000000   0.000000   0.000000   0.000000
    10  H   -0.000000  -0.000000   0.000000   0.000000  -0.000000   0.000000
    11  N   -0.031067  -0.000009  -0.000023   0.001300   0.000420   0.000245
    12  N   -0.042235  -0.000043  -0.000143   0.001196   0.002803   0.000110
    13  C    0.094875  -0.000556   0.000517  -0.008319  -0.015223  -0.003162
    14  C    0.000875  -0.000012  -0.000000  -0.001603  -0.000095   0.002386
    15  H    0.000604  -0.000005   0.000000  -0.002304   0.000012  -0.000865
    16  H   -0.000103   0.000000  -0.000000   0.000194   0.000002   0.000175
    17  H    0.000010  -0.000013   0.000001  -0.001136  -0.000002   0.001053
    18  S   -0.019630  -0.001817   0.003970   0.000457  -0.000262   0.001815
    19  O    0.000460  -0.000006  -0.000022  -0.000003  -0.000017   0.000001
    20  O   -0.001384   0.006199   0.000127  -0.001178   0.000066   0.002998
    21  C   -0.060386  -0.039952  -0.032634   0.003108   0.000988  -0.000188
    22  C    0.339179   0.385798   0.367461  -0.039071  -0.037728  -0.002794
    23  H   -0.001840   0.003832  -0.004103   0.000031   0.001726   0.000005
    24  H    0.004066  -0.002894  -0.001445  -0.000095  -0.000112  -0.000007
    25  C    5.309490  -0.041766  -0.028608   0.354520   0.373438  -0.041768
    26  H   -0.041766   0.512429  -0.026361  -0.004370   0.004054   0.003092
    27  H   -0.028608  -0.026361   0.533340  -0.000058  -0.004734  -0.000101
    28  C    0.354520  -0.004370  -0.000058   5.075094  -0.043177   0.375367
    29  H    0.373438   0.004054  -0.004734  -0.043177   0.529369   0.004645
    30  H   -0.041768   0.003092  -0.000101   0.375367   0.004645   0.562861
    31  H   -0.043579   0.000983   0.001433   0.374344  -0.000073  -0.036265
    32  C   -0.039801   0.000210  -0.000118   0.365039  -0.003254  -0.037555
    33  C    0.004151  -0.000001   0.000002  -0.050434   0.000139  -0.002450
    34  H   -0.000083   0.000003   0.000003  -0.044259  -0.000129  -0.004778
    35  H   -0.002853   0.000008  -0.000002  -0.040579   0.003986   0.005116
    36  H   -0.000122   0.000000  -0.000000   0.004302  -0.000001  -0.000016
    37  H    0.000064  -0.000001   0.000000  -0.004591   0.000007   0.004319
    38  H    0.000021   0.000000   0.000000  -0.004582   0.000001  -0.000436
              31         32         33         34         35         36
     1  C    0.000000   0.000009   0.000000  -0.000100   0.000003  -0.000000
     2  C   -0.000005  -0.000041   0.000012  -0.000261   0.000015   0.000000
     3  C   -0.000005  -0.002640   0.000068   0.005888   0.000013   0.000002
     4  C    0.000000  -0.000885   0.000024   0.003695  -0.000020   0.000012
     5  C   -0.000000  -0.000025  -0.000001  -0.000040   0.000002   0.000000
     6  C    0.000000   0.000018  -0.000000  -0.000039  -0.000000  -0.000000
     7  H    0.000000   0.000000   0.000000  -0.000001   0.000000   0.000000
     8  H    0.000000  -0.000006   0.000002   0.000116  -0.000001   0.000002
     9  H   -0.000000  -0.000000   0.000000  -0.000003   0.000000  -0.000000
    10  H   -0.000000   0.000000  -0.000000   0.000000  -0.000000  -0.000000
    11  N   -0.000023  -0.001733   0.000051  -0.004278   0.000154  -0.000005
    12  N   -0.000047   0.000262  -0.000001  -0.000641  -0.000004   0.000000
    13  C    0.000978   0.000496   0.000011   0.000210  -0.000104  -0.000001
    14  C   -0.000008  -0.000874  -0.001201  -0.001978   0.000060   0.000026
    15  H    0.000037   0.000971   0.001006   0.002108   0.000006  -0.000050
    16  H   -0.000002   0.000047   0.000004  -0.000045   0.000000  -0.000000
    17  H    0.000025   0.000047   0.000011   0.000012  -0.000003  -0.000000
    18  S    0.000001  -0.000030  -0.000001  -0.000026  -0.000003   0.000000
    19  O    0.000000  -0.000000  -0.000000   0.000000  -0.000000   0.000000
    20  O    0.000005   0.000017   0.000000  -0.000000  -0.000000   0.000000
    21  C    0.000072  -0.000131   0.000001   0.000007  -0.000002  -0.000000
    22  C   -0.004617   0.003894  -0.000142   0.000051  -0.000010   0.000001
    23  H   -0.000003   0.000003   0.000000  -0.000000  -0.000000   0.000000
    24  H    0.000005   0.000001  -0.000000   0.000000  -0.000000   0.000000
    25  C   -0.043579  -0.039801   0.004151  -0.000083  -0.002853  -0.000122
    26  H    0.000983   0.000210  -0.000001   0.000003   0.000008   0.000000
    27  H    0.001433  -0.000118   0.000002   0.000003  -0.000002  -0.000000
    28  C    0.374344   0.365039  -0.050434  -0.044259  -0.040579   0.004302
    29  H   -0.000073  -0.003254   0.000139  -0.000129   0.003986  -0.000001
    30  H   -0.036265  -0.037555  -0.002450  -0.004778   0.005116  -0.000016
    31  H    0.580729  -0.039448  -0.002915   0.005492  -0.005616  -0.000040
    32  C   -0.039448   5.033180   0.356591   0.381174   0.389623  -0.029166
    33  C   -0.002915   0.356591   5.104123  -0.038317  -0.036379   0.382085
    34  H    0.005492   0.381174  -0.038317   0.577021  -0.034773  -0.002563
    35  H   -0.005616   0.389623  -0.036379  -0.034773   0.563308  -0.002812
    36  H   -0.000040  -0.029166   0.382085  -0.002563  -0.002812   0.535495
    37  H   -0.000296  -0.038269   0.382790  -0.004884   0.004779  -0.028037
    38  H    0.004578  -0.035874   0.383849   0.004889  -0.004047  -0.027338
              37         38
     1  C    0.000000  -0.000000
     2  C    0.000001  -0.000000
     3  C   -0.000002  -0.000000
     4  C   -0.000003   0.000000
     5  C    0.000000  -0.000000
     6  C   -0.000000   0.000000
     7  H   -0.000000   0.000000
     8  H   -0.000002   0.000000
     9  H    0.000000  -0.000000
    10  H   -0.000000   0.000000
    11  N    0.000006  -0.000006
    12  N   -0.000000  -0.000000
    13  C    0.000006  -0.000000
    14  C   -0.000380   0.000022
    15  H    0.003073  -0.000013
    16  H   -0.000004  -0.000000
    17  H   -0.000019  -0.000000
    18  S   -0.000002   0.000000
    19  O    0.000000   0.000000
    20  O   -0.000001   0.000000
    21  C    0.000000   0.000000
    22  C   -0.000002   0.000001
    23  H   -0.000000  -0.000000
    24  H    0.000000   0.000000
    25  C    0.000064   0.000021
    26  H   -0.000001   0.000000
    27  H    0.000000   0.000000
    28  C   -0.004591  -0.004582
    29  H    0.000007   0.000001
    30  H    0.004319  -0.000436
    31  H   -0.000296   0.004578
    32  C   -0.038269  -0.035874
    33  C    0.382790   0.383849
    34  H   -0.004884   0.004889
    35  H    0.004779  -0.004047
    36  H   -0.028037  -0.027338
    37  H    0.556865  -0.029798
    38  H   -0.029798   0.548222
          Atomic-Atomic Spin Densities.
               1          2          3          4          5          6
     1  C    0.076929   0.014899   0.002398   0.000589  -0.004277  -0.013456
     2  C    0.014899  -0.051780   0.008281   0.001459  -0.001138   0.000294
     3  C    0.002398   0.008281   0.070441   0.017170  -0.005006  -0.001125
     4  C    0.000589   0.001459   0.017170  -0.032137  -0.013720  -0.000446
     5  C   -0.004277  -0.001138  -0.005006  -0.013720   0.097776   0.014503
     6  C   -0.013456   0.000294  -0.001125  -0.000446   0.014503  -0.022047
     7  H   -0.000059   0.000207  -0.000037   0.000005  -0.000002   0.000154
     8  H   -0.000001  -0.000004  -0.000057   0.000315  -0.000073  -0.000021
     9  H    0.000011  -0.000009   0.000011   0.000142  -0.000162   0.000160
    10  H   -0.000194  -0.000016  -0.000004   0.000000  -0.000198   0.000423
[...]
 31,0.00005291,-0.00001935,0.00000330,0.00001472,-0.00003462,0.00110294
 ,-0.00138631,-0.00061437,0.00023928,-0.00004423,0.00008216,0.00011715,
 -0.00005787,-0.00005388,-0.02043686,-0.02134142,0.01285659,0.00010639,
 0.00029747,0.00041997,0.00100860,-0.00037279,-0.00027233,-0.00588021,0
 .00261115,-0.00053406,-0.14980882,-0.11422896,0.05907522,0.00378129,0.
 00433814,-0.00268138,0.16335638,-0.00012097,0.00003072,-0.00007130,-0.
 00007481,0.00001376,0.00013927,-0.00063556,-0.00233312,0.00077209,-0.0
 0016691,-0.00018380,0.00006768,0.00015178,0.00005452,0.00009400,0.0001
 1926,-0.00006224,-0.00005104,0.00000432,0.00000179,0.00000777,0.000073
 06,0.00008952,-0.00012484,0.00002641,0.00001927,-0.00000244,0.00000378
 ,0.00000627,-0.00001318,0.00066390,-0.00172209,0.00170210,0.00001778,0
 .00013068,-0.00003389,-0.00018639,-0.00003676,-0.00003893,0.00018071,-
 0.00023542,0.00067377,-0.00016129,0.00000757,-0.00050617,0.00004032,-0
 .00015152,-0.00004368,-0.00000099,-0.00014979,-0.00000234,0.00024708,0
 .00009719,0.00018612,-0.00006439,0.00003801,-0.00004278,-0.00000180,-0
 .00011486,-0.00010597,-0.00009621,-0.00003868,-0.00004370,0.00003835,0
 .00012230,0.00015961,0.00001007,-0.00001936,-0.00000123,-0.00000447,0.
 00001535,0.00000180,-0.00005798,0.00098829,-0.00011594,-0.00005181,-0.
 00005562,-0.00005045,-0.00004198,0.00002112,0.00001669,0.00787884,0.00
 906495,-0.00535753,-0.00031839,0.00015296,-0.00007117,-0.00081252,0.00
 008831,0.00010962,0.00306112,-0.00025967,-0.00011411,-0.11548515,-0.17
 744199,0.06811691,-0.01677015,-0.02090897,0.01037708,0.12328383,0.1979
 9711,-0.00016894,-0.00004443,-0.00007493,0.00019514,-0.00018607,-0.000
 26796,0.00065694,0.00099493,0.00000715,-0.00041721,0.00010209,0.000030
 76,0.00006350,0.00008205,0.00016040,0.00004476,-0.00009673,-0.00013546
 ,0.00000375,-0.00000398,-0.00000004,0.00005236,-0.00001285,-0.00012142
 ,-0.00000433,-0.00000471,0.00000615,0.00000148,-0.00000503,-0.00000718
 ,-0.00023965,0.00063202,-0.00112846,-0.00008339,-0.00016444,-0.0002660
 9,-0.00024990,-0.00023894,0.00067827,-0.00028800,0.00141591,-0.0004007
 1,-0.00028978,-0.00014173,-0.00111950,0.00002112,-0.00013734,-0.000004
 07,-0.00004864,-0.00006122,-0.00001048,0.00016401,0.00017758,0.0001267
 5,-0.00005872,-0.00000845,-0.00003241,0.00001852,-0.00015170,-0.000090
 48,0.00000452,-0.00002213,-0.00000995,-0.00010232,-0.00012157,-0.00014
 464,0.00000995,-0.00000412,-0.00000686,-0.00000205,0.00000033,-0.00000
 026,0.00040119,0.00050779,0.00039010,-0.00007830,0.00001563,0.00001676
 ,-0.00001286,0.00000569,0.00000619,-0.00096700,-0.00178383,0.00016237,
 0.00003235,-0.00002026,-0.00031771,0.00016225,-0.00062571,0.00023466,-
 0.00054290,-0.00042223,0.00098617,0.05934137,0.06807150,-0.08606137,-0
 .01199333,-0.01390008,0.00704351,-0.06569492,-0.07424280,0.09219328,-0
 .00003337,-0.00001480,-0.00002872,0.00006621,0.00002463,0.00002558,0.0
 0019811,0.00011696,0.00006102,-0.00005376,-0.00000814,-0.00000143,0.00
 003705,0.00002858,0.00005699,0.00000919,-0.00001831,-0.00005303,-0.000
 00110,-0.00000530,-0.00000191,0.00002828,0.00002187,-0.00003628,-0.000
 00740,-0.00000405,0.00000373,-0.00000037,-0.00000703,-0.00000352,-0.00
 003595,-0.00027786,0.00016387,0.00004290,-0.00002895,-0.00008494,-0.00
 010956,0.00008382,0.00015618,-0.00008903,0.00016482,0.00000097,-0.0001
 0799,-0.00008626,-0.00023068,0.00009064,-0.00004054,0.00002103,0.00001
 315,-0.00016646,0.00011235,-0.00031918,-0.00049754,-0.00033417,0.00009
 398,0.00010204,0.00005938,0.00003759,0.00048634,0.00007964,0.00011208,
 0.00001183,0.00005502,-0.00008130,-0.00015402,0.00024874,-0.00001169,0
 .00001283,0.00000635,0.00000249,-0.00002187,-0.00001228,0.00079017,-0.
 00175716,-0.00097659,0.00019135,-0.00000751,-0.00001864,-0.00004387,0.
 00010542,0.00005907,-0.01120974,0.00648017,-0.03237864,0.00043245,0.00
 052360,0.00059212,-0.00596682,0.00236030,0.00030171,0.00134950,-0.0006
 6337,-0.00008941,-0.06500626,0.00803795,-0.06156321,0.00092658,-0.0008
 9176,0.00494781,0.00545849,-0.00225359,0.02024955,0.07249908,-0.000054
 83,0.00000342,-0.00004129,0.00003551,0.00000967,-0.00000267,0.00043169
 ,0.00018153,0.00013338,-0.00011757,-0.00004986,-0.00002626,0.00005829,
 0.00005723,0.00010301,0.00000096,-0.00003384,-0.00008210,-0.00000447,-
 0.00002160,-0.00000400,0.00003192,0.00001551,-0.00004082,-0.00000809,-
 0.00000369,-0.00000255,-0.00000542,-0.00000828,-0.00000208,0.00006660,
 -0.00036333,0.00005239,-0.00001263,-0.00001803,-0.00020408,-0.00037819
 ,0.00011002,0.00046221,0.00003486,0.00012502,0.00000370,0.00000076,-0.
 00024188,-0.00032597,0.00002670,-0.00009688,-0.00000267,-0.00001287,-0
 .00008352,-0.00001275,0.00006087,0.00025788,0.00018275,-0.00003071,-0.
 00003305,-0.00004306,0.00005351,-0.00021538,-0.00007403,-0.00003137,-0
 .00002017,-0.00000758,-0.00003847,-0.00004617,-0.00027304,0.00001021,-
 0.00001052,-0.00000024,-0.00000109,0.00001569,-0.00000648,0.00024066,0
 .00089985,0.00147721,-0.00014400,0.00002521,-0.00002295,0.00003943,-0.
 00003461,-0.00001006,0.00280156,-0.00258943,0.01025768,-0.00013882,-0.
 00042989,-0.00048300,0.00204280,-0.00024047,-0.00049528,-0.00035012,0.
 00038512,-0.00068962,0.00843198,-0.05502433,0.03888108,-0.00740598,0.0
 0382413,-0.03034303,0.00643957,-0.00327808,0.02255507,-0.01247561,0.05
 972277,0.00001269,-0.00000751,0.00003157,-0.00005440,0.00003384,-0.000
 01719,-0.00039248,-0.00005055,-0.00016240,0.00008040,0.00001633,0.0000
 0314,-0.00002079,-0.00003599,-0.00005105,0.00003014,0.00000464,0.00005
 302,0.00000260,0.00002343,0.00000418,-0.00003611,-0.00001470,0.0000336
 2,0.00001187,0.00000769,-0.00000544,0.00001057,0.00001542,0.00000330,0
 .00008155,0.00038991,0.00007324,0.00002301,0.00004213,0.00018268,0.000
 35240,-0.00008036,-0.00029717,0.00006242,-0.00036737,-0.00006326,-0.00
 007522,0.00007322,0.00025220,-0.00003211,0.00011016,0.00000950,0.00004
 276,0.00004720,-0.00000837,0.00001324,-0.00016574,-0.00012362,-0.00000
 120,0.00002593,0.00003503,-0.00001895,0.00008511,0.00011803,-0.0000162
 3,0.00003074,0.00004403,0.00006450,0.00018172,0.00025853,-0.00000371,0
 .00000633,-0.00000387,-0.00000290,0.00000348,-0.00000328,0.00018979,-0
 .00041334,0.00054089,0.00011178,-0.00004718,-0.00004558,-0.00006895,0.
 00001100,0.00001550,0.00000445,0.00008708,-0.00071942,-0.00026702,0.00
 067060,0.00017573,0.00000939,-0.00045395,0.00127241,-0.00043933,-0.000
 16559,0.00057359,-0.06262216,0.03820808,-0.29079695,-0.00346288,0.0019
 5543,-0.01571616,-0.00275469,0.00180868,-0.01174447,0.06842283,-0.0387
 8468,0.31512251,-0.00007510,-0.00002091,-0.00002851,0.00001040,0.00001
 305,0.00001783,-0.00002560,-0.00001582,-0.00003675,-0.00007240,0.00001
 630,0.00003850,0.00006170,0.00003293,0.00005971,0.00006393,-0.00004451
 ,-0.00006036,-0.00000337,0.00000090,0.00000127,-0.00000338,0.00001626,
 -0.00002279,0.00001379,0.00000687,-0.00000157,0.00001131,0.00000363,0.
 00000030,0.00004008,0.00004368,-0.00003808,0.00002928,0.00006851,0.000
 00848,-0.00004932,-0.00009654,0.00009165,0.00004338,-0.00002898,0.0000
 1632,-0.00010597,0.00004125,0.00001656,0.00000313,0.00004525,-0.000009
 68,0.00001017,-0.00003651,0.00001700,0.00002532,-0.00014829,0.00004478
 ,-0.00001381,0.00009990,-0.00003482,-0.00002085,0.00006953,-0.00002507
 ,-0.00004448,-0.00000525,0.00001664,0.00006233,0.00008749,0.00000368,0
 .00000587,0.00000012,-0.00000524,-0.00000253,0.00001758,-0.00001008,-0
 .00016443,-0.00023451,-0.00021449,0.00001304,-0.00001727,-0.00000591,-
 0.00001000,0.00000934,0.00000312,0.00121643,0.00093899,0.00064352,-0.0
 0001015,0.00007610,0.00002389,0.00010565,-0.00021140,0.00003071,0.0003
 1075,-0.00004810,-0.00014865,-0.00092865,-0.00057378,-0.00019132,-0.29
 706489,0.08236516,-0.01382641,0.00041184,0.00034559,0.00008448,0.00013
 179,0.00015987,0.00041132,0.31923901,0.00012249,0.00003190,0.00004050,
 -0.00001757,-0.00002838,-0.00004637,0.00001937,0.00002248,0.00006003,0
 .00013092,0.00006249,-0.00007004,-0.00014089,-0.00005415,-0.00012852,-
 0.00011335,0.00007225,0.00009981,0.00000320,-0.00000013,0.00000043,-0.
 00000475,-0.00003404,0.00007728,-0.00002069,-0.00001667,0.00000493,-0.
 00000837,-0.00000141,0.00000589,-0.00005990,0.00003652,0.00011376,-0.0
 0004222,-0.00006937,0.00001456,0.00013775,0.00016498,-0.00017590,-0.00
 003993,-0.00011958,-0.00006141,0.00010925,0.00006028,-0.00003362,-0.00
 001121,-0.00002680,0.00001338,-0.00000540,0.00004774,-0.00002961,0.000
 05680,0.00013462,-0.00013712,-0.00000906,-0.00009679,0.00005759,0.0000
 0414,-0.00004299,0.00008173,0.00017063,0.00001121,-0.00006285,-0.00007
 118,-0.00058732,-0.00016069,-0.00000335,-0.00000602,0.00000767,0.00000
 456,-0.00006682,0.00003247,0.00200818,0.00026603,0.00014777,-0.0000498
 9,0.00001084,0.00001804,0.00003923,-0.00002826,-0.00003345,-0.00151184
 ,-0.00511721,-0.00354256,-0.00004720,-0.00001815,-0.00002361,-0.000385
 38,0.00001793,0.00001168,0.00017077,0.00012855,-0.00027232,0.02830823,
 -0.00842100,0.00318223,0.08187978,-0.07600599,0.00520124,-0.00020798,0
 .00070701,0.00092929,-0.00041212,0.00117379,0.00010401,-0.09058971,0.0
 8135902,0.00003573,0.00000959,0.00000352,-0.00002689,0.00001061,0.0000
 1750,-0.00010800,-0.00000876,-0.00000533,0.00004215,-0.00000045,0.0000
 2631,-0.00002430,-0.00002802,-0.00003964,-0.00003069,0.00002672,0.0000
 2841,0.00000232,-0.00000403,0.00000035,-0.00000061,0.00002042,-0.00001
 806,-0.00000174,0.00000163,0.00000524,-0.00000273,-0.00000447,-0.00000
 209,0.00002517,0.00004749,0.00008214,0.00001604,-0.00003689,0.00001462
 ,0.00010911,0.00008270,-0.00011466,0.00006024,-0.00003919,-0.00009606,
 -0.00019349,-0.00009181,0.00004128,-0.00001424,0.00006884,0.00000434,0
 .00002843,-0.00007214,-0.00000140,-0.00004361,0.00000365,-0.00013481,0
 .00001452,-0.00003707,0.00004152,0.00001901,0.00004376,0.00008505,0.00
 009959,0.00000242,-0.00002176,-0.00003299,-0.00027534,-0.00014405,-0.0
 0000440,-0.00000415,0.00000853,0.00000602,-0.00003667,0.00001339,0.001
 14936,-0.00026764,0.00056851,-0.00002304,0.00000873,-0.00000106,0.0000
 4085,-0.00002281,-0.00001390,-0.00078744,-0.00322168,-0.00175723,-0.00
 004828,0.00004884,0.00000076,0.00026015,-0.00016937,0.00028621,-0.0003
 9665,0.00000942,-0.00002990,0.01798856,-0.00447274,0.00050583,-0.01413
 402,0.00534713,-0.05014970,-0.00046632,0.00057008,0.00050011,0.0002178
 4,0.00076638,0.00026252,0.01505302,-0.00317215,0.05015170,0.00005185,0
 .00001197,0.00002248,-0.00005768,0.00000332,0.00000037,-0.00012224,-0.
 00002615,0.00000200,0.00009903,-0.00000717,-0.00005632,-0.00006481,-0.
 00002925,-0.00004793,-0.00003559,0.00003381,0.00006088,0.00000214,0.00
 000330,0.00000014,-0.00002544,-0.00002259,0.00003284,0.00000131,-0.000
 00094,-0.00000563,-0.00000046,0.00000549,0.00000564,-0.00006680,0.0001
 6812,0.00022236,0.00000758,0.00000801,0.00009460,0.00016103,0.00004254
 ,-0.00021895,0.00004113,-0.00035038,-0.00007440,0.00017848,-0.00019828
 ,0.00001273,-0.00003841,0.00001671,0.00000038,-0.00001249,0.00012581,-
 0.00003718,0.00012509,0.00008267,-0.00000122,-0.00003004,-0.00004054,0
 .00001263,-0.00005974,-0.00008059,0.00001683,-0.00000260,0.00000008,-0
 .00001747,-0.00000099,-0.00004752,0.00001574,0.00000303,-0.00000433,-0
 .00000024,-0.00000103,-0.00000780,0.00001043,0.00001289,0.00015096,0.0
 0001613,-0.00002387,0.00000851,0.00000561,-0.00001230,-0.00000893,-0.0
 0000377,0.00072131,-0.00052321,0.00131111,-0.00006149,-0.00002005,-0.0
 0007630,0.00014407,0.00021114,-0.00029636,-0.00000216,-0.00007585,0.00
 003294,-0.00018598,-0.00082607,0.00379893,-0.06506263,0.00841080,-0.06
 130688,-0.00012356,-0.00007191,-0.00046426,0.00062050,0.00069962,0.000
 61037,-0.00597638,0.00375993,-0.03142307,0.06463532,0.00003796,0.00000
 344,0.00001461,-0.00007231,0.00002867,0.00003964,-0.00026915,-0.000055
 30,-0.00003586,0.00011364,0.00001102,-0.00001748,-0.00003745,-0.000033
 28,-0.00004972,-0.00001333,0.00002284,0.00004323,0.00000244,0.00000747
 ,0.00000303,-0.00002472,-0.00000055,0.00002164,0.00000376,0.00000056,0
 .00000033,0.00000437,0.00000528,0.00000337,0.00004221,0.00019827,0.000
 31675,0.00004363,0.00003711,0.00012429,0.00024929,0.00004699,-0.000240
 61,0.00021869,-0.00078024,-0.00035194,-0.00039896,-0.00062956,0.000292
 15,-0.00007235,0.00020788,0.00002203,0.00008392,0.00006423,0.00001234,
 0.00004638,-0.00011608,-0.00008442,-0.00000968,0.00001866,0.00001896,-
 0.00007889,0.00006057,0.00007477,-0.00001837,0.00001095,0.00000339,0.0
 0006187,0.00006995,0.00010194,-0.00000014,-0.00000395,0.00000180,-0.00
 000093,-0.00000034,0.00000058,-0.00024254,-0.00023939,0.00003261,0.000
 02688,-0.00001475,-0.00000961,-0.00002114,0.00000218,0.00000249,-0.001
 42481,0.00147462,-0.00024448,0.00006991,0.00011024,0.00015690,0.000440
 75,0.00000492,0.00056623,0.00012118,-0.00007448,0.00008555,-0.00693565
 ,0.00436081,-0.03013742,0.00830688,-0.05322107,0.03447707,-0.00044487,
 0.00131320,0.00079842,0.00119040,-0.00519938,-0.00335348,0.00118062,-0
 .00239558,0.00996664,-0.00959700,0.05774748,0.00004600,0.00000321,0.00
 002877,-0.00010351,0.00004864,0.00006522,-0.00028419,-0.00004126,-0.00
 003544,0.00012292,-0.00004903,-0.00003645,-0.00002930,-0.00003587,-0.0
 0003504,-0.00001564,0.00002422,0.00005242,0.00000351,0.00001162,0.0000
 0093,-0.00002948,-0.00000134,0.00001029,0.00000304,0.00000277,-0.00000
 556,0.00000152,0.00000893,0.00000192,-0.00002690,0.00032120,0.00035050
 ,0.00009061,0.00002252,0.00019255,0.00024495,0.00005200,-0.00035336,0.
 00018437,-0.00028747,-0.00025865,-0.00022426,-0.00006131,0.00018533,-0
 .00003098,0.00016145,0.00000910,0.00002808,-0.00007606,0.00001489,-0.0
 0005237,-0.00014629,-0.00023996,0.00001711,-0.00000581,0.00006756,-0.0
 0001289,0.00013516,0.00016660,0.00002786,0.00002203,0.00001333,0.00004
 027,-0.00003420,0.00001326,-0.00000475,-0.00000472,0.00000871,0.000001
 81,-0.00001687,0.00000334,0.00022797,-0.00018984,0.00038505,0.00001524
 ,-0.00001130,-0.00001869,-0.00000753,-0.00000236,0.00000328,-0.0008250
 8,0.00097652,0.00045187,-0.00004210,0.00024057,0.00012561,0.00095080,-
 0.00056741,0.00012437,-0.00002132,-0.00009814,-0.00007237,-0.00388594,
 0.00201917,-0.01647610,-0.06098517,0.03493163,-0.29650834,-0.00003852,
 -0.00006138,0.00066887,0.00053287,-0.00357310,-0.00009562,-0.00000479,
 0.00028375,-0.00012272,0.06733144,-0.03534516,0.32268010,-0.00000509,0
 .00000403,0.00000049,-0.00000684,0.00001111,0.00002912,-0.00005339,0.0
 0000175,-0.00003949,-0.00001578,-0.00002998,0.00002269,0.00002106,-0.0
 0000816,0.00001432,0.00000919,0.00000244,0.00000445,0.00000202,-0.0000
 0215,-0.00000239,0.00000217,0.00002257,-0.00003423,0.00000504,0.000008
 55,-0.00000161,-0.00000401,-0.00000195,-0.00000420,-0.00001231,0.00008
 223,0.00005374,0.00004961,-0.00001436,0.00004536,-0.00000243,-0.000014
 59,-0.00009051,0.00004009,-0.00000869,0.00000549,-0.00005459,-0.000093
 47,0.00001766,-0.00001153,0.00001020,-0.00000166,0.00000199,-0.0000099
 4,-0.00000850,-0.00004128,0.00008097,-0.00003721,0.00001529,-0.0000491
 6,0.00001945,0.00002513,-0.00003155,0.00002006,0.00002350,-0.00000494,
 -0.00001635,-0.00002036,-0.00006331,-0.00001041,-0.00000387,-0.0000025
 3,0.00000639,0.00000300,-0.00001001,0.00000547,0.00011134,0.00009654,-
 0.00005809,-0.00002286,0.00000768,0.00000071,0.00001172,-0.00000778,-0
 .00000885,0.00111432,0.00081792,-0.00045676,-0.00002129,-0.00004927,-0
 .00000688,-0.00002040,-0.00005404,-0.00012264,0.00023226,-0.00035948,0
 .00027158,0.00203732,0.00330375,-0.00242253,-0.14504718,-0.11378701,0.
 06023154,0.00076032,0.00123108,0.00019925,-0.00005415,-0.00045713,-0.0
 0027896,-0.01723791,-0.02317327,0.01259441,0.00516195,0.00741752,-0.00
 324563,0.15300793,-0.00003723,-0.00001085,0.00000696,0.00004302,0.0000
 3944,0.00004243,0.00028100,0.00002193,0.00009926,-0.00003548,-0.000075
 54,-0.00001866,0.00008172,0.00004113,0.00008086,0.00004042,-0.00004033
 ,-0.00005900,-0.00000425,0.00000098,-0.00000561,0.00001500,0.00001364,
 -0.00002711,-0.00001040,-0.00000010,-0.00000158,-0.00000405,-0.0000015
 6,-0.00000630,-0.00008228,-0.00035103,-0.00005102,0.00001210,0.0000130
 0,-0.00008250,-0.00025622,0.00010902,0.00025159,-0.00006066,0.00018909
 ,-0.00005401,0.00002607,-0.00003664,-0.00017590,0.00002372,-0.00005124
 ,0.00000449,-0.00001449,-0.00003635,0.00001306,-0.00022429,0.00002547,
 -0.00002770,0.00005647,-0.00001625,0.00000207,0.00009515,0.00003158,0.
 00000565,0.00004840,-0.00000166,0.00000024,0.00002680,-0.00000929,0.00
 002405,-0.00000954,0.00000831,0.00000247,0.00000173,-0.00000344,-0.000
 00668,0.00016351,0.00027652,-0.00031620,0.00003854,-0.00002887,0.00000
 545,0.00001903,-0.00001033,-0.00002295,-0.00145536,0.00104306,0.000826
 99,-0.00004471,0.00010080,0.00013553,0.00011676,-0.00012099,0.00004086
 ,0.00115220,0.00001092,-0.00038507,-0.01742072,-0.02170595,0.01128295,
 -0.11387511,-0.18487670,0.07321863,0.00148954,-0.00396793,-0.00388795,
 0.00004070,0.00123555,-0.00000173,0.00643267,0.00882902,-0.00506967,-0
 .00180420,-0.00304343,0.00134352,0.12513443,0.20239900,0.00003800,0.00
 000647,0.00001881,-0.00006637,0.00002930,0.00004259,-0.00010940,-0.000
 02265,0.00003363,0.00010255,-0.00003495,-0.00004024,-0.00002416,-0.000
 01763,-0.00002481,-0.00002164,0.00001865,0.00002685,-0.00000056,0.0000
 0157,0.00000070,-0.00001858,-0.00000682,0.00001477,-0.00000439,-0.0000
 0276,-0.00000147,0.00000227,0.00000278,0.00000355,-0.00004136,0.000116
 04,0.00028357,0.00002382,0.00003035,0.00007097,0.00011763,0.00009919,-
 0.00014816,0.00013998,-0.00044576,-0.00021863,-0.00011251,-0.00005783,
 -0.00000147,-0.00003882,0.00010102,0.00000703,0.00003459,0.00002864,0.
 00000065,0.00002726,-0.00004419,-0.00004697,-0.00000741,0.00000145,0.0
 0001086,-0.00005793,0.00002203,0.00004422,-0.00001798,0.00000954,-0.00
 000460,0.00004231,0.00005556,0.00004488,0.00000055,-0.00000497,0.00000
 241,-0.00000078,0.00000294,0.00000316,-0.00020023,0.00002757,-0.000108
 13,0.00000833,0.00000068,-0.00000752,-0.00000137,-0.00000244,-0.000001
 84,-0.00081738,0.00034909,0.00043125,0.00000451,-0.00001498,0.00002769
 ,0.00018096,0.00014132,-0.00009247,0.00021453,0.00039137,0.00005380,-0
 .01170667,-0.01414549,0.00732974,0.06029447,0.07343056,-0.08764162,0.0
 0077713,-0.00370840,-0.00126704,-0.00056121,0.00067855,0.00078864,-0.0
 0191826,-0.00253784,0.00000451,0.02041342,0.02268945,-0.01136553,-0.06
 669528,-0.07718740,0.09172624\\0.00000126,0.00000018,-0.00000046,-0.00
 000077,0.00000042,0.00000036,0.00000025,-0.00000391,0.00000132,-0.0000
 0026,-0.00000131,0.00000026,0.00000035,-0.00000135,0.00000029,0.000000
 26,-0.00000116,-0.00000010,0.00000055,0.00000013,-0.00000076,0.0000004
 6,-0.00000145,0.00000041,0.00000035,-0.00000140,0.00000012,0.00000030,
 -0.00000075,-0.00000033,0.00000182,0.00000653,-0.00000508,0.00000223,0
 .00000379,0.00000069,-0.00000287,-0.00000528,0.00000253,0.00000035,-0.
 00000160,0.00000005,-0.00000098,-0.00000164,0.00000014,0.00000024,-0.0
 0000109,-0.00000031,0.00000072,0.00000042,-0.00000068,-0.00000006,-0.0
 0000530,-0.00000238,-0.00000097,0.00000159,-0.00000164,0.00000265,-0.0
 0000415,0.00000180,0.00000310,0.00000304,-0.00000034,-0.00000123,0.000
 00561,0.00000459,0.00000140,0.00000164,-0.00000171,0.00000013,0.000001
 35,0.00000009,0.00000256,-0.00000160,-0.00000430,0.00000128,0.00000209
 ,-0.00000341,-0.00000189,-0.00000024,-0.00000144,-0.00000187,0.0000006
 9,0.00000173,-0.00000077,0.00000127,-0.00000007,-0.00000154,0.00000322
 ,-0.00000015,-0.00000090,0.00000124,0.00000048,-0.00000075,-0.00000027
 ,0.00000011,-0.00000079,0.00000015,0.00000152,-0.00000123,-0.00000048,
 0.00000130,-0.00000076,0.00000072,0.00000112,-0.00000142,-0.00000101,0
 .00000212,0.,-0.00000015,0.00000090,-0.00000122,0.00000005,0.00000125\
 \\@
 The archive entry for this job was punched.


 THE FIRST AND LAST THING REQUIRED OF GENIUS IS THE LOVE OF TRUTH.

                          -- GOETHE
 Job cpu time:       0 days  3 hours 57 minutes 46.4 seconds.
 Elapsed time:       0 days  0 hours  2 minutes 39.4 seconds.
 File lengths (MBytes):  RWF=    909 Int=      0 D2E=      0 Chk=     14 Scr=      1
 Normal termination of Gaussian 16 at Fri Nov 21 15:56:34 2025.
