 Entering Gaussian System, Link 0=g16
 Initial command:
 /public/software/g16/l1.exe "/tmp/Gau-19514.inp" -scrdir="/tmp/"
 Entering Link 1 = /public/software/g16/l1.exe PID=     19515.
  
 Copyright (c) 1988-2021, Gaussian, Inc.  All Rights Reserved.
  
 This is part of the Gaussian(R) 16 program.  It is based on
 the Gaussian(R) 09 system (copyright 2009, Gaussian, Inc.),
 the Gaussian(R) 03 system (copyright 2003, Gaussian, Inc.),
 the Gaussian(R) 98 system (copyright 1998, Gaussian, Inc.),
 the Gaussian(R) 94 system (copyright 1995, Gaussian, Inc.),
 the Gaussian 92(TM) system (copyright 1992, Gaussian, Inc.),
 the Gaussian 90(TM) system (copyright 1990, Gaussian, Inc.),
 the Gaussian 88(TM) system (copyright 1988, Gaussian, Inc.),
 the Gaussian 86(TM) system (copyright 1986, Carnegie Mellon
 University), and the Gaussian 82(TM) system (copyright 1983,
 Carnegie Mellon University). Gaussian is a federally registered
 trademark of Gaussian, Inc.
  
 This software contains proprietary and confidential information,
 including trade secrets, belonging to Gaussian, Inc.
  
 This software is provided under written license and may be
 used, copied, transmitted, or stored only in accord with that
 written license.
  
 The following legend is applicable only to US Government
 contracts under FAR:
  
                    RESTRICTED RIGHTS LEGEND
  
 Use, reproduction and disclosure by the US Government is
 subject to restrictions as set forth in subparagraphs (a)
 and (c) of the Commercial Computer Software - Restricted
 Rights clause in FAR 52.227-19.
  
 Gaussian, Inc.
 340 Quinnipiac St., Bldg. 40, Wallingford CT 06492
  
  
 ---------------------------------------------------------------
 Warning -- This program may not be used in any manner that
 competes with the business of Gaussian, Inc. or will provide
 assistance to any competitor of Gaussian, Inc.  The licensee
 of this program is prohibited from giving any competitor of
 Gaussian, Inc. access to this program.  By using this program,
 the user acknowledges that Gaussian, Inc. is engaged in the
 business of creating and licensing software in the field of
 computational chemistry and represents and warrants to the
 licensee that it is not a competitor of Gaussian, Inc. and that
 it will not use this program in any manner prohibited above.
 ---------------------------------------------------------------
  

 Cite this work as:
 Gaussian 16, Revision C.02,
 M. J. Frisch, G. W. Trucks, H. B. Schlegel, G. E. Scuseria, 
 M. A. Robb, J. R. Cheeseman, G. Scalmani, V. Barone, 
 G. A. Petersson, H. Nakatsuji, X. Li, M. Caricato, A. V. Marenich, 
 J. Bloino, B. G. Janesko, R. Gomperts, B. Mennucci, H. P. Hratchian, 
 J. V. Ortiz, A. F. Izmaylov, J. L. Sonnenberg, D. Williams-Young, 
 F. Ding, F. Lipparini, F. Egidi, J. Goings, B. Peng, A. Petrone, 
 T. Henderson, D. Ranasinghe, V. G. Zakrzewski, J. Gao, N. Rega, 
 G. Zheng, W. Liang, M. Hada, M. Ehara, K. Toyota, R. Fukuda, 
 J. Hasegawa, M. Ishida, T. Nakajima, Y. Honda, O. Kitao, H. Nakai, 
 T. Vreven, K. Throssell, J. A. Montgomery, Jr., J. E. Peralta, 
 F. Ogliaro, M. J. Bearpark, J. J. Heyd, E. N. Brothers, K. N. Kudin, 
 V. N. Staroverov, T. A. Keith, R. Kobayashi, J. Normand, 
 K. Raghavachari, A. P. Rendell, J. C. Burant, S. S. Iyengar, 
 J. Tomasi, M. Cossi, J. M. Millam, M. Klene, C. Adamo, R. Cammi, 
 J. W. Ochterski, R. L. Martin, K. Morokuma, O. Farkas, 
 J. B. Foresman, and D. J. Fox, Gaussian, Inc., Wallingford CT, 2019.
 
 ******************************************
 Gaussian 16:  ES64L-G16RevC.02  7-Dec-2021
                21-Nov-2025 
 ******************************************
 %nprocshared=96
 Will use up to   96 processors via shared memory.
 %mem=10GB
 %chk=TS2.chk
 ---------------------------------------------
 # opt=(calcfc,ts,noeigen) freq 6-31g(d) m062x
 ---------------------------------------------
 1/5=1,10=4,11=1,18=20,26=3,38=1/1,3;
 2/9=110,12=2,17=6,18=5,40=1/2;
 3/5=1,6=6,7=1,11=2,25=1,30=1,71=2,74=-55,140=1/1,2,3;
 4//1;
 5/5=2,38=5/2;
 8/6=4,10=90,11=11/1;
 11/6=1,8=1,9=11,15=111,16=1/1,2,10;
 10/6=1,13=1/2;
 6/7=2,8=2,9=2,10=2,28=1/1;
 7/10=1,25=1/1,2,3,16;
 1/5=1,10=4,11=1,18=20,26=3/3(2);
 2/9=110/2;
 99//99;
 2/9=110/2;
 3/5=1,6=6,7=1,11=2,25=1,30=1,71=1,74=-55/1,2,3;
 4/5=5,16=3,69=1/1;
 5/5=2,38=5/2;
 7//1,2,3,16;
 1/5=1,11=1,18=20,26=3/3(-5);
 2/9=110/2;
 6/7=2,8=2,9=2,10=2,19=2,28=1/1;
 99/9=1/99;
 -------------------
 Title Card Required
 -------------------
 Symbolic Z-matrix:
 Charge =  0 Multiplicity = 2
 C                    -2.84971  -0.61393  -1.51832 
 C                    -1.63322  -0.32044  -0.85933 
 C                    -1.62347  -0.1668    0.56167 
 C                    -2.7763   -0.30633   1.33855 
 C                    -3.94986  -0.59741   0.66001 
 C                    -3.98583  -0.74792  -0.74953 
 H                    -2.86784  -0.73063  -2.59657 
 H                    -2.75582  -0.18951   2.41676 
 H                    -4.87046  -0.71418   1.22243 
 H                    -4.93344  -0.97683  -1.22564 
 N                    -0.3405    0.13676   0.90044 
 N                    -0.40521  -0.12981  -1.37175 
 C                     0.43769   0.04283  -0.28374 
 C                     0.10821   0.31866   2.26922 
 H                    -0.34725   1.22001   2.69027 
 H                    -0.16462  -0.55282   2.86948 
 H                     1.19088   0.41992   2.29143 
 S                     1.4309   -1.81842  -0.09232 
 O                     1.04763  -2.82947  -1.08881 
 O                     1.39314  -2.18621   1.33656 
 C                     3.0579   -1.12018  -0.44751 
 C                     2.95835   0.31395   0.05923 
 H                     3.19501  -1.16826  -1.53038 
 H                     3.80392  -1.73315   0.06201 
 C                     1.66349   0.9431   -0.49089 
 H                     2.98153   0.32632   1.15398 
 H                     3.8163    0.89421  -0.28965 
 C                     1.43037   2.37338   0.00383 
 H                     1.76758   0.97468  -1.58278 
 H                     1.35093   2.38839   1.09844 
 H                     2.32586   2.95748  -0.24531 
 C                     0.20182   3.04445  -0.61028 
 C                     0.0662    4.4972   -0.16167 
 H                    -0.70183   2.48781  -0.3321 
 H                     0.27295   2.99409  -1.70399 
 H                    -0.81598   4.96926  -0.6028 
 H                    -0.02676   4.5608    0.92774 
 H                     0.94478   5.08057  -0.45644 
 

 GradGradGradGradGradGradGradGradGradGradGradGradGradGradGradGradGradGrad
 Berny optimization.
 Initialization pass.
                           ----------------------------
                           !    Initial Parameters    !
                           ! (Angstroms and Degrees)  !
 --------------------------                            --------------------------
 ! Name  Definition              Value          Derivative Info.                !
 --------------------------------------------------------------------------------
 ! R1    R(1,2)                  1.4143         calculate D2E/DX2 analytically  !
 ! R2    R(1,6)                  1.3783         calculate D2E/DX2 analytically  !
 ! R3    R(1,7)                  1.0847         calculate D2E/DX2 analytically  !
 ! R4    R(2,3)                  1.4293         calculate D2E/DX2 analytically  !
 ! R5    R(2,12)                 1.3442         calculate D2E/DX2 analytically  !
 ! R6    R(3,4)                  1.3971         calculate D2E/DX2 analytically  !
 ! R7    R(3,11)                 1.3612         calculate D2E/DX2 analytically  !
 ! R8    R(4,5)                  1.3865         calculate D2E/DX2 analytically  !
 ! R9    R(4,8)                  1.0847         calculate D2E/DX2 analytically  !
 ! R10   R(5,6)                  1.418          calculate D2E/DX2 analytically  !
 ! R11   R(5,9)                  1.0851         calculate D2E/DX2 analytically  !
 ! R12   R(6,10)                 1.0849         calculate D2E/DX2 analytically  !
 ! R13   R(11,13)                1.4201         calculate D2E/DX2 analytically  !
 ! R14   R(11,14)                1.4519         calculate D2E/DX2 analytically  !
 ! R15   R(12,13)                1.3871         calculate D2E/DX2 analytically  !
 ! R16   R(13,18)                2.1183         calculate D2E/DX2 analytically  !
 ! R17   R(13,25)                1.5349         calculate D2E/DX2 analytically  !
 ! R18   R(14,15)                1.0942         calculate D2E/DX2 analytically  !
 ! R19   R(14,16)                1.0928         calculate D2E/DX2 analytically  !
 ! R20   R(14,17)                1.0876         calculate D2E/DX2 analytically  !
 ! R21   R(18,19)                1.4704         calculate D2E/DX2 analytically  !
 ! R22   R(18,20)                1.4759         calculate D2E/DX2 analytically  !
 ! R23   R(18,21)                1.8058         calculate D2E/DX2 analytically  !
 ! R24   R(21,22)                1.5243         calculate D2E/DX2 analytically  !
 ! R25   R(21,23)                1.0926         calculate D2E/DX2 analytically  !
 ! R26   R(21,24)                1.0917         calculate D2E/DX2 analytically  !
 ! R27   R(22,25)                1.5411         calculate D2E/DX2 analytically  !
 ! R28   R(22,26)                1.0951         calculate D2E/DX2 analytically  !
 ! R29   R(22,27)                1.0929         calculate D2E/DX2 analytically  !
 ! R30   R(25,28)                1.5313         calculate D2E/DX2 analytically  !
 ! R31   R(25,29)                1.0973         calculate D2E/DX2 analytically  !
 ! R32   R(28,30)                1.0976         calculate D2E/DX2 analytically  !
 ! R33   R(28,31)                1.0978         calculate D2E/DX2 analytically  !
 ! R34   R(28,32)                1.5287         calculate D2E/DX2 analytically  !
 ! R35   R(32,33)                1.5265         calculate D2E/DX2 analytically  !
 ! R36   R(32,34)                1.0972         calculate D2E/DX2 analytically  !
 ! R37   R(32,35)                1.0972         calculate D2E/DX2 analytically  !
 ! R38   R(33,36)                1.0935         calculate D2E/DX2 analytically  !
 ! R39   R(33,37)                1.0952         calculate D2E/DX2 analytically  !
 ! R40   R(33,38)                1.095          calculate D2E/DX2 analytically  !
 ! A1    A(2,1,6)              117.987          calculate D2E/DX2 analytically  !
 ! A2    A(2,1,7)              119.9917         calculate D2E/DX2 analytically  !
 ! A3    A(6,1,7)              122.0208         calculate D2E/DX2 analytically  !
 ! A4    A(1,2,3)              119.4332         calculate D2E/DX2 analytically  !
 ! A5    A(1,2,12)             129.6119         calculate D2E/DX2 analytically  !
 ! A6    A(3,2,12)             110.9474         calculate D2E/DX2 analytically  !
 ! A7    A(2,3,4)              122.4423         calculate D2E/DX2 analytically  !
 ! A8    A(2,3,11)             106.13           calculate D2E/DX2 analytically  !
 ! A9    A(4,3,11)             131.4209         calculate D2E/DX2 analytically  !
 ! A10   A(3,4,5)              116.567          calculate D2E/DX2 analytically  !
 ! A11   A(3,4,8)              121.7612         calculate D2E/DX2 analytically  !
 ! A12   A(5,4,8)              121.6714         calculate D2E/DX2 analytically  !
 ! A13   A(4,5,6)              122.0205         calculate D2E/DX2 analytically  !
 ! A14   A(4,5,9)              119.1457         calculate D2E/DX2 analytically  !
 ! A15   A(6,5,9)              118.8338         calculate D2E/DX2 analytically  !
 ! A16   A(1,6,5)              121.5482         calculate D2E/DX2 analytically  !
 ! A17   A(1,6,10)             119.7154         calculate D2E/DX2 analytically  !
 ! A18   A(5,6,10)             118.7361         calculate D2E/DX2 analytically  !
 ! A19   A(3,11,13)            107.1102         calculate D2E/DX2 analytically  !
 ! A20   A(3,11,14)            123.6311         calculate D2E/DX2 analytically  !
 ! A21   A(13,11,14)           128.6874         calculate D2E/DX2 analytically  !
 ! A22   A(2,12,13)            105.8893         calculate D2E/DX2 analytically  !
 ! A23   A(11,13,12)           109.2269         calculate D2E/DX2 analytically  !
 ! A24   A(11,13,18)           103.8683         calculate D2E/DX2 analytically  !
 ! A25   A(11,13,25)           120.7551         calculate D2E/DX2 analytically  !
 ! A26   A(12,13,18)           104.2666         calculate D2E/DX2 analytically  !
 ! A27   A(12,13,25)           116.8998         calculate D2E/DX2 analytically  !
 ! A28   A(18,13,25)            98.8065         calculate D2E/DX2 analytically  !
 ! A29   A(11,14,15)           109.715          calculate D2E/DX2 analytically  !
 ! A30   A(11,14,16)           109.9239         calculate D2E/DX2 analytically  !
 ! A31   A(11,14,17)           109.7891         calculate D2E/DX2 analytically  !
 ! A32   A(15,14,16)           109.9776         calculate D2E/DX2 analytically  !
 ! A33   A(15,14,17)           109.2576         calculate D2E/DX2 analytically  !
 ! A34   A(16,14,17)           108.1536         calculate D2E/DX2 analytically  !
 ! A35   A(13,18,19)           114.8789         calculate D2E/DX2 analytically  !
 ! A36   A(13,18,20)           107.1239         calculate D2E/DX2 analytically  !
 ! A37   A(13,18,21)            93.7227         calculate D2E/DX2 analytically  !
 ! A38   A(19,18,20)           118.5597         calculate D2E/DX2 analytically  !
 ! A39   A(19,18,21)           111.5566         calculate D2E/DX2 analytically  !
 ! A40   A(20,18,21)           108.0487         calculate D2E/DX2 analytically  !
 ! A41   A(18,21,22)           103.8609         calculate D2E/DX2 analytically  !
 ! A42   A(18,21,23)           106.9179         calculate D2E/DX2 analytically  !
 ! A43   A(18,21,24)           107.8657         calculate D2E/DX2 analytically  !
 ! A44   A(22,21,23)           112.2775         calculate D2E/DX2 analytically  !
 ! A45   A(22,21,24)           114.6915         calculate D2E/DX2 analytically  !
 ! A46   A(23,21,24)           110.6155         calculate D2E/DX2 analytically  !
 ! A47   A(21,22,25)           108.6809         calculate D2E/DX2 analytically  !
 ! A48   A(21,22,26)           109.974          calculate D2E/DX2 analytically  !
 ! A49   A(21,22,27)           110.0068         calculate D2E/DX2 analytically  !
 ! A50   A(25,22,26)           111.7176         calculate D2E/DX2 analytically  !
 ! A51   A(25,22,27)           109.1996         calculate D2E/DX2 analytically  !
 ! A52   A(26,22,27)           107.248          calculate D2E/DX2 analytically  !
 ! A53   A(13,25,22)           112.5429         calculate D2E/DX2 analytically  !
 ! A54   A(13,25,28)           112.4982         calculate D2E/DX2 analytically  !
 ! A55   A(13,25,29)           103.1161         calculate D2E/DX2 analytically  !
 ! A56   A(22,25,28)           113.1973         calculate D2E/DX2 analytically  !
 ! A57   A(22,25,29)           106.6937         calculate D2E/DX2 analytically  !
 ! A58   A(28,25,29)           108.0016         calculate D2E/DX2 analytically  !
 ! A59   A(25,28,30)           110.2426         calculate D2E/DX2 analytically  !
 ! A60   A(25,28,31)           107.4261         calculate D2E/DX2 analytically  !
 ! A61   A(25,28,32)           113.741          calculate D2E/DX2 analytically  !
 ! A62   A(30,28,31)           106.1463         calculate D2E/DX2 analytically  !
 ! A63   A(30,28,32)           109.6615         calculate D2E/DX2 analytically  !
 ! A64   A(31,28,32)           109.3191         calculate D2E/DX2 analytically  !
 ! A65   A(28,32,33)           111.7855         calculate D2E/DX2 analytically  !
 ! A66   A(28,32,34)           109.7154         calculate D2E/DX2 analytically  !
 ! A67   A(28,32,35)           109.1601         calculate D2E/DX2 analytically  !
 ! A68   A(33,32,34)           109.5811         calculate D2E/DX2 analytically  !
 ! A69   A(33,32,35)           110.0226         calculate D2E/DX2 analytically  !
 ! A70   A(34,32,35)           106.4306         calculate D2E/DX2 analytically  !
 ! A71   A(32,33,36)           111.3448         calculate D2E/DX2 analytically  !
 ! A72   A(32,33,37)           110.8014         calculate D2E/DX2 analytically  !
 ! A73   A(32,33,38)           110.893          calculate D2E/DX2 analytically  !
 ! A74   A(36,33,37)           107.9231         calculate D2E/DX2 analytically  !
 ! A75   A(36,33,38)           107.9815         calculate D2E/DX2 analytically  !
 ! A76   A(37,33,38)           107.7528         calculate D2E/DX2 analytically  !
 ! D1    D(6,1,2,3)             -0.3597         calculate D2E/DX2 analytically  !
 ! D2    D(6,1,2,12)          -179.2656         calculate D2E/DX2 analytically  !
 ! D3    D(7,1,2,3)            179.8897         calculate D2E/DX2 analytically  !
 ! D4    D(7,1,2,12)             0.9837         calculate D2E/DX2 analytically  !
 ! D5    D(2,1,6,5)              0.0522         calculate D2E/DX2 analytically  !
 ! D6    D(2,1,6,10)          -179.7584         calculate D2E/DX2 analytically  !
 ! D7    D(7,1,6,5)            179.7975         calculate D2E/DX2 analytically  !
 ! D8    D(7,1,6,10)            -0.0131         calculate D2E/DX2 analytically  !
 ! D9    D(1,2,3,4)              0.5302         calculate D2E/DX2 analytically  !
 ! D10   D(1,2,3,11)          -178.6239         calculate D2E/DX2 analytically  !
 ! D11   D(12,2,3,4)           179.6277         calculate D2E/DX2 analytically  !
 ! D12   D(12,2,3,11)            0.4736         calculate D2E/DX2 analytically  !
 ! D13   D(1,2,12,13)         -176.328          calculate D2E/DX2 analytically  !
 ! D14   D(3,2,12,13)            4.6923         calculate D2E/DX2 analytically  !
 ! D15   D(2,3,4,5)             -0.3555         calculate D2E/DX2 analytically  !
 ! D16   D(2,3,4,8)            179.8616         calculate D2E/DX2 analytically  !
 ! D17   D(11,3,4,5)           178.5607         calculate D2E/DX2 analytically  !
 ! D18   D(11,3,4,8)            -1.2221         calculate D2E/DX2 analytically  !
 ! D19   D(2,3,11,13)           -5.3425         calculate D2E/DX2 analytically  !
 ! D20   D(2,3,11,14)         -177.3378         calculate D2E/DX2 analytically  !
 ! D21   D(4,3,11,13)          175.6096         calculate D2E/DX2 analytically  !
 ! D22   D(4,3,11,14)            3.6143         calculate D2E/DX2 analytically  !
 ! D23   D(3,4,5,6)              0.0334         calculate D2E/DX2 analytically  !
 ! D24   D(3,4,5,9)           -179.9688         calculate D2E/DX2 analytically  !
 ! D25   D(8,4,5,6)            179.8165         calculate D2E/DX2 analytically  !
 ! D26   D(8,4,5,9)             -0.1857         calculate D2E/DX2 analytically  !
 ! D27   D(4,5,6,1)              0.1174         calculate D2E/DX2 analytically  !
 ! D28   D(4,5,6,10)           179.9298         calculate D2E/DX2 analytically  !
 ! D29   D(9,5,6,1)           -179.8804         calculate D2E/DX2 analytically  !
 ! D30   D(9,5,6,10)            -0.068          calculate D2E/DX2 analytically  !
 ! D31   D(3,11,13,12)           8.4724         calculate D2E/DX2 analytically  !
 ! D32   D(3,11,13,18)        -102.3169         calculate D2E/DX2 analytically  !
 ! D33   D(3,11,13,25)         148.3891         calculate D2E/DX2 analytically  !
 ! D34   D(14,11,13,12)        179.93           calculate D2E/DX2 analytically  !
 ! D35   D(14,11,13,18)         69.1407         calculate D2E/DX2 analytically  !
 ! D36   D(14,11,13,25)        -40.1533         calculate D2E/DX2 analytically  !
 ! D37   D(3,11,14,15)         -67.5202         calculate D2E/DX2 analytically  !
 ! D38   D(3,11,14,16)          53.5387         calculate D2E/DX2 analytically  !
 ! D39   D(3,11,14,17)         172.3953         calculate D2E/DX2 analytically  !
 ! D40   D(13,11,14,15)        122.297          calculate D2E/DX2 analytically  !
 ! D41   D(13,11,14,16)       -116.644          calculate D2E/DX2 analytically  !
 ! D42   D(13,11,14,17)          2.2125         calculate D2E/DX2 analytically  !
 ! D43   D(2,12,13,11)          -8.0211         calculate D2E/DX2 analytically  !
 ! D44   D(2,12,13,18)         102.5035         calculate D2E/DX2 analytically  !
 ! D45   D(2,12,13,25)        -149.6699         calculate D2E/DX2 analytically  !
 ! D46   D(11,13,18,19)        114.6198         calculate D2E/DX2 analytically  !
 ! D47   D(11,13,18,20)        -19.3515         calculate D2E/DX2 analytically  !
 ! D48   D(11,13,18,21)       -129.529          calculate D2E/DX2 analytically  !
 ! D49   D(12,13,18,19)          0.2409         calculate D2E/DX2 analytically  !
 ! D50   D(12,13,18,20)       -133.7304         calculate D2E/DX2 analytically  !
 ! D51   D(12,13,18,21)        116.0922         calculate D2E/DX2 analytically  !
 ! D52   D(25,13,18,19)       -120.5423         calculate D2E/DX2 analytically  !
 ! D53   D(25,13,18,20)        105.4863         calculate D2E/DX2 analytically  !
 ! D54   D(25,13,18,21)         -4.6911         calculate D2E/DX2 analytically  !
 ! D55   D(11,13,25,22)         89.5459         calculate D2E/DX2 analytically  !
 ! D56   D(11,13,25,28)        -39.7658         calculate D2E/DX2 analytically  !
 ! D57   D(11,13,25,29)       -155.8675         calculate D2E/DX2 analytically  !
 ! D58   D(12,13,25,22)       -133.4348         calculate D2E/DX2 analytically  !
 ! D59   D(12,13,25,28)         97.2536         calculate D2E/DX2 analytically  !
 ! D60   D(12,13,25,29)        -18.8481         calculate D2E/DX2 analytically  !
 ! D61   D(18,13,25,22)        -22.4435         calculate D2E/DX2 analytically  !
 ! D62   D(18,13,25,28)       -151.7551         calculate D2E/DX2 analytically  !
 ! D63   D(18,13,25,29)         92.1432         calculate D2E/DX2 analytically  !
 ! D64   D(13,18,21,22)         29.5501         calculate D2E/DX2 analytically  !
 ! D65   D(13,18,21,23)        -89.3431         calculate D2E/DX2 analytically  !
 ! D66   D(13,18,21,24)        151.6635         calculate D2E/DX2 analytically  !
 ! D67   D(19,18,21,22)        148.1704         calculate D2E/DX2 analytically  !
 ! D68   D(19,18,21,23)         29.2771         calculate D2E/DX2 analytically  !
 ! D69   D(19,18,21,24)        -89.7163         calculate D2E/DX2 analytically  !
 ! D70   D(20,18,21,22)        -79.8118         calculate D2E/DX2 analytically  !
 ! D71   D(20,18,21,23)        161.295          calculate D2E/DX2 analytically  !
 ! D72   D(20,18,21,24)         42.3015         calculate D2E/DX2 analytically  !
 ! D73   D(18,21,22,25)        -48.8111         calculate D2E/DX2 analytically  !
 ! D74   D(18,21,22,26)         73.7704         calculate D2E/DX2 analytically  !
 ! D75   D(18,21,22,27)       -168.3195         calculate D2E/DX2 analytically  !
 ! D76   D(23,21,22,25)         66.3391         calculate D2E/DX2 analytically  !
 ! D77   D(23,21,22,26)       -171.0793         calculate D2E/DX2 analytically  !
 ! D78   D(23,21,22,27)        -53.1693         calculate D2E/DX2 analytically  !
 ! D79   D(24,21,22,25)       -166.2779         calculate D2E/DX2 analytically  !
 ! D80   D(24,21,22,26)        -43.6963         calculate D2E/DX2 analytically  !
 ! D81   D(24,21,22,27)         74.2137         calculate D2E/DX2 analytically  !
 ! D82   D(21,22,25,13)         48.6875         calculate D2E/DX2 analytically  !
 ! D83   D(21,22,25,28)        177.6371         calculate D2E/DX2 analytically  !
 ! D84   D(21,22,25,29)        -63.7077         calculate D2E/DX2 analytically  !
 ! D85   D(26,22,25,13)        -72.8337         calculate D2E/DX2 analytically  !
 ! D86   D(26,22,25,28)         56.1159         calculate D2E/DX2 analytically  !
 ! D87   D(26,22,25,29)        174.7712         calculate D2E/DX2 analytically  !
 ! D88   D(27,22,25,13)        168.6987         calculate D2E/DX2 analytically  !
 ! D89   D(27,22,25,28)        -62.3517         calculate D2E/DX2 analytically  !
 ! D90   D(27,22,25,29)         56.3035         calculate D2E/DX2 analytically  !
 ! D91   D(13,25,28,30)         68.5657         calculate D2E/DX2 analytically  !
 ! D92   D(13,25,28,31)       -176.1946         calculate D2E/DX2 analytically  !
 ! D93   D(13,25,28,32)        -55.0734         calculate D2E/DX2 analytically  !
 ! D94   D(22,25,28,30)        -60.4068         calculate D2E/DX2 analytically  !
 ! D95   D(22,25,28,31)         54.8329         calculate D2E/DX2 analytically  !
 ! D96   D(22,25,28,32)        175.954          calculate D2E/DX2 analytically  !
 ! D97   D(29,25,28,30)       -178.3025         calculate D2E/DX2 analytically  !
 ! D98   D(29,25,28,31)        -63.0628         calculate D2E/DX2 analytically  !
 ! D99   D(29,25,28,32)         58.0584         calculate D2E/DX2 analytically  !
 ! D100  D(25,28,32,33)       -176.0598         calculate D2E/DX2 analytically  !
 ! D101  D(25,28,32,34)         62.1629         calculate D2E/DX2 analytically  !
 ! D102  D(25,28,32,35)        -54.1071         calculate D2E/DX2 analytically  !
 ! D103  D(30,28,32,33)         59.9859         calculate D2E/DX2 analytically  !
 ! D104  D(30,28,32,34)        -61.7914         calculate D2E/DX2 analytically  !
 ! D105  D(30,28,32,35)       -178.0613         calculate D2E/DX2 analytically  !
 ! D106  D(31,28,32,33)        -56.0022         calculate D2E/DX2 analytically  !
 ! D107  D(31,28,32,34)       -177.7795         calculate D2E/DX2 analytically  !
 ! D108  D(31,28,32,35)         65.9505         calculate D2E/DX2 analytically  !
 ! D109  D(28,32,33,36)       -179.8453         calculate D2E/DX2 analytically  !
 ! D110  D(28,32,33,37)        -59.7197         calculate D2E/DX2 analytically  !
 ! D111  D(28,32,33,38)         59.8935         calculate D2E/DX2 analytically  !
 ! D112  D(34,32,33,36)        -57.9906         calculate D2E/DX2 analytically  !
 ! D113  D(34,32,33,37)         62.135          calculate D2E/DX2 analytically  !
 ! D114  D(34,32,33,38)       -178.2519         calculate D2E/DX2 analytically  !
 ! D115  D(35,32,33,36)         58.699          calculate D2E/DX2 analytically  !
 ! D116  D(35,32,33,37)        178.8246         calculate D2E/DX2 analytically  !
 ! D117  D(35,32,33,38)        -61.5622         calculate D2E/DX2 analytically  !
 --------------------------------------------------------------------------------
 Trust Radius=3.00D-01 FncErr=1.00D-07 GrdErr=1.00D-06 EigMax=2.50D+02 EigMin=1.00D-04
 Number of steps in this run=    228 maximum allowed number of steps=    228.
 Search for a saddle point of order  1.
 GradGradGradGradGradGradGradGradGradGradGradGradGradGradGradGradGradGrad

                          Input orientation:                          
 ---------------------------------------------------------------------
 Center     Atomic      Atomic             Coordinates (Angstroms)
 Number     Number       Type             X           Y           Z
 ---------------------------------------------------------------------
      1          6           0       -2.849714   -0.613930   -1.518322
      2          6           0       -1.633222   -0.320442   -0.859332
      3          6           0       -1.623473   -0.166802    0.561673
      4          6           0       -2.776300   -0.306328    1.338553
      5          6           0       -3.949863   -0.597411    0.660008
      6          6           0       -3.985834   -0.747915   -0.749532
      7          1           0       -2.867839   -0.730628   -2.596566
      8          1           0       -2.755821   -0.189508    2.416759
      9          1           0       -4.870457   -0.714181    1.222426
     10          1           0       -4.933440   -0.976826   -1.225642
     11          7           0       -0.340496    0.136760    0.900436
     12          7           0       -0.405210   -0.129808   -1.371753
     13          6           0        0.437691    0.042833   -0.283739
     14          6           0        0.108213    0.318655    2.269224
     15          1           0       -0.347251    1.220013    2.690266
     16          1           0       -0.164624   -0.552816    2.869476
     17          1           0        1.190875    0.419920    2.291434
     18         16           0        1.430895   -1.818417   -0.092322
     19          8           0        1.047630   -2.829468   -1.088813
     20          8           0        1.393140   -2.186214    1.336561
     21          6           0        3.057899   -1.120181   -0.447505
     22          6           0        2.958346    0.313949    0.059232
     23          1           0        3.195014   -1.168264   -1.530377
     24          1           0        3.803915   -1.733146    0.062012
     25          6           0        1.663494    0.943095   -0.490889
     26          1           0        2.981531    0.326320    1.153980
     27          1           0        3.816295    0.894212   -0.289653
     28          6           0        1.430370    2.373379    0.003831
     29          1           0        1.767575    0.974677   -1.582783
     30          1           0        1.350926    2.388394    1.098439
     31          1           0        2.325856    2.957484   -0.245306
     32          6           0        0.201820    3.044447   -0.610277
     33          6           0        0.066198    4.497196   -0.161674
     34          1           0       -0.701834    2.487811   -0.332095
     35          1           0        0.272954    2.994093   -1.703990
     36          1           0       -0.815982    4.969255   -0.602801
     37          1           0       -0.026755    4.560796    0.927740
     38          1           0        0.944775    5.080573   -0.456437
 ---------------------------------------------------------------------
                    Distance matrix (angstroms):
                    1          2          3          4          5
     1  C    0.000000
     2  C    1.414304   0.000000
     3  C    2.455600   1.429320   0.000000
     4  C    2.874325   2.477403   1.397147   0.000000
     5  C    2.440435   2.784229   2.367949   1.386507   0.000000
     6  C    1.378317   2.393653   2.763639   2.453176   1.418009
     7  H    1.084692   2.170372   3.441049   3.958986   3.434210
     8  H    3.959017   3.465566   2.173493   1.084709   2.162937
     9  H    3.406634   3.868906   3.358441   2.136662   1.085100
    10  H    2.135245   3.384740   3.847924   3.417297   2.160337
    11  N    3.565123   2.230910   1.361227   2.514242   3.691117
    12  N    2.496289   1.344221   2.285535   3.605411   4.112331
    13  C    3.572473   2.179898   2.237647   3.617110   4.533343
    14  C    4.895360   3.637156   2.479947   3.094700   4.460576
    15  H    5.228564   4.077544   2.843045   3.171297   4.517056
    16  H    5.144532   4.014323   2.757390   3.037323   4.383124
    17  H    5.648845   4.295461   3.355126   4.144140   5.488506
    18  S    4.669891   3.495861   3.533370   4.694071   5.568610
    19  O    4.503596   3.678973   4.116878   5.184668   5.745902
    20  O    5.350163   4.178746   3.711931   4.573642   5.615131
    21  C    6.025183   4.776589   4.882890   6.155505   7.113972
    22  C    6.089597   4.725326   4.634289   5.908263   6.993916
    23  H    6.070104   4.947824   5.347655   6.680590   7.494860
    24  H    6.929710   5.692720   5.670947   6.853072   7.859298
    25  C    4.883543   3.549734   3.625453   4.961823   5.933591
    26  H    6.482954   5.076187   4.669053   5.795423   7.010101
    27  H    6.944048   5.612233   5.607279   6.895989   7.964923
    28  C    5.436919   4.169810   4.011192   5.163176   6.180863
    29  H    4.883358   3.710274   4.171435   5.551754   6.339611
    30  H    5.788503   4.480603   3.957802   4.934894   6.099641
    31  H    6.415769   5.176497   5.099959   6.260437   7.269217
    32  C    4.849755   3.840818   3.875214   4.888234   5.666853
    33  C    6.038762   5.156005   5.013092   5.779647   6.539031
    34  H    3.954911   3.005287   2.948764   3.860270   4.588306
    35  H    4.775286   3.915750   4.326768   5.426582   6.026572
    36  H    6.012171   5.358599   5.327957   5.953443   6.511810
    37  H    6.382014   5.440666   5.003368   5.605146   6.486105
    38  H    6.924818   5.998279   5.930210   6.788747   7.579145
                    6          7          8          9         10
     6  C    0.000000
     7  H    2.159108   0.000000
     8  H    3.442405   5.043688   0.000000
     9  H    2.161554   4.312244   2.484632   0.000000
    10  H    1.084914   2.491336   4.316130   2.462922   0.000000
    11  N    4.097991   4.401005   2.870450   4.620425   5.182221
    12  N    3.686473   2.815261   4.458897   5.197084   4.609084
    13  C    4.517723   4.107790   4.188698   5.569384   5.547606
    14  C    5.197276   5.799465   2.912505   5.191309   6.269819
    15  H    5.379985   6.173245   2.804062   5.133717   6.418221
    16  H    5.266586   6.100541   2.655418   4.988354   6.300110
    17  H    6.116341   6.456738   3.995437   6.258491   7.199164
    18  S    5.560472   5.092508   5.145622   6.531075   6.519007
    19  O    5.457448   4.691412   5.807294   6.696269   6.262923
    20  O    5.945910   5.978642   4.729433   6.435259   6.932036
    21  C    7.060027   6.315424   6.547480   8.112480   8.030414
    22  C    7.071300   6.487591   6.201863   7.981242   8.099215
    23  H    7.235398   6.171424   7.207654   8.534397   8.136417
    24  H    7.893635   7.251578   7.138472   8.810765   8.864054
    25  C    5.902653   5.269554   5.409949   6.955180   6.909812
    26  H    7.302158   7.028433   5.897279   7.920924   8.367052
    27  H    7.986319   7.255315   7.189703   8.962866   8.996373
    28  C    6.296451   5.905212   5.469443   7.121687   7.296133
    29  H    6.063278   5.042111   6.149209   7.401683   6.988527
    30  H    6.460065   6.417113   5.024830   6.953197   7.497954
    31  H    7.336324   6.790071   6.543209   8.211107   8.314880
    32  C    5.651358   5.255411   5.326261   6.573742   6.551351
    33  C    6.654001   6.470504   6.047917   7.310591   7.489548
    34  H    4.629129   4.491966   4.352367   5.481488   5.541536
    35  H    5.748990   4.953263   6.024066   6.983544   6.565330
    36  H    6.538771   6.377608   6.284390   7.216070   7.259289
    37  H    6.831542   6.963595   5.677179   7.167543   7.705704
    38  H    7.639901   7.272292   7.051484   8.379420   8.475681
                   11         12         13         14         15
    11  N    0.000000
    12  N    2.288687   0.000000
    13  C    1.420094   1.387105   0.000000
    14  C    1.451897   3.704246   2.588871   0.000000
    15  H    2.092122   4.280815   3.293417   1.094153   0.000000
    16  H    2.093696   4.269056   3.265019   1.092797   1.791198
    17  H    2.088098   4.033439   2.709427   1.087614   1.779058
    18  S    2.818885   2.803502   2.118336   3.448690   4.487389
    19  O    3.831777   3.078792   3.044714   4.697829   5.711867
    20  O    2.931195   3.846795   2.916660   2.965681   4.057568
    21  C    3.865997   3.718628   2.871395   4.260459   5.188175
    22  C    3.409014   3.682139   2.558287   3.606570   4.320910
    23  H    4.484615   3.750355   3.259401   5.116272   6.005442
    24  H    4.623380   4.726850   3.821663   4.768636   5.732456
    25  C    2.569424   2.491301   1.534919   3.229094   3.773530
    26  H    3.337077   4.249399   2.935732   3.082172   3.773546
    27  H    4.389642   4.476680   3.484228   4.541915   5.130417
    28  C    2.990373   3.395222   2.549422   3.331966   3.421567
    29  H    3.363398   2.446511   2.079529   4.245210   4.774058
    30  H    2.823113   3.940457   2.871597   2.683075   2.604387
    31  H    4.047053   4.273052   3.473015   4.266640   4.333808
    32  C    3.321296   3.320275   3.028523   3.966135   3.810987
    33  C    4.506316   4.805797   4.471494   4.834381   4.363992
    34  H    2.679018   2.832102   2.697920   3.482567   3.296621
    35  H    3.914551   3.213883   3.279358   4.792863   4.779278
    36  H    5.083190   5.173052   5.093440   5.543532   5.012067
    37  H    4.435231   5.237620   4.700572   4.451242   3.790784
    38  H    5.285292   5.459701   5.066141   5.550219   5.145386
                   16         17         18         19         20
    16  H    0.000000
    17  H    1.765708   0.000000
    18  S    3.594395   3.278728   0.000000
    19  O    4.724485   4.690961   1.470412   0.000000
    20  O    2.728451   2.782917   1.475943   2.532902   0.000000
    21  C    4.659283   3.655062   1.805777   2.715533   2.662844
    22  C    4.289720   2.849195   2.627367   3.853559   3.214382
    23  H    5.569978   4.598385   2.367027   2.750606   3.535860
    24  H    5.002433   4.053886   2.379562   3.181733   2.764341
    25  C    4.107532   2.870262   2.799805   3.868983   3.633901
    26  H    3.689729   2.123443   2.925344   4.327712   2.978112
    27  H    5.284099   3.712114   3.617655   4.708498   4.243262
    28  C    4.395287   3.017696   4.192899   5.330101   4.750520
    29  H    5.088147   3.955995   3.183740   3.903056   4.319028
    30  H    3.752890   2.307324   4.372821   5.665875   4.580996
    31  H    5.312868   3.763305   4.861439   5.986166   5.461675
    32  C    5.018293   4.035629   5.042455   5.953761   5.706946
    33  C    5.894385   4.889460   6.461747   7.450020   6.976636
    34  H    4.447928   3.839456   4.811406   5.648602   5.387006
    35  H    5.804191   4.840698   5.205627   5.906981   6.110266
    36  H    6.555474   5.753305   7.168092   8.033015   7.735766
    37  H    5.471597   4.526493   6.622660   7.735424   6.906908
    38  H    6.635325   5.415999   6.925674   7.935945   7.498138
                   21         22         23         24         25
    21  C    0.000000
    22  C    1.524278   0.000000
    23  H    1.092577   2.186281   0.000000
    24  H    1.091730   2.214857   1.795983   0.000000
    25  C    2.490654   1.541136   2.807833   3.471220   0.000000
    26  H    2.159387   1.095063   3.079794   2.471864   2.196185
    27  H    2.158208   1.092933   2.485798   2.650817   2.162738
    28  C    3.880402   2.564962   4.243937   4.743485   1.531276
    29  H    2.709654   2.133239   2.575369   3.766210   1.097298
    30  H    4.196880   2.822600   4.791779   4.906977   2.170841
    31  H    4.147785   2.735153   4.407793   4.927587   2.134666
    32  C    5.052505   3.937296   5.249069   6.021001   2.562504
    33  C    6.370785   5.090469   6.615155   7.268956   3.910418
    34  H    5.212151   4.275012   5.476147   6.186564   2.829512
    35  H    5.124639   4.183713   5.088594   6.158996   2.758951
    36  H    7.218885   6.029570   7.390374   8.167472   4.729724
    37  H    6.609076   5.263159   7.017426   7.418708   4.237595
    38  H    6.550933   5.200105   6.727918   7.407445   4.199580
                   26         27         28         29         30
    26  H    0.000000
    27  H    1.761649   0.000000
    28  C    2.814142   2.822535   0.000000
    29  H    3.063320   2.424028   2.141826   0.000000
    30  H    2.629469   3.199597   1.097590   3.059599   0.000000
    31  H    3.051382   2.545676   1.097790   2.456022   1.754994
    32  C    4.269381   4.217907   1.528658   2.771517   2.161148
    33  C    5.256074   5.202028   2.529616   4.162016   2.772266
    34  H    4.521907   4.791122   2.161535   3.154644   2.504024
    35  H    4.756195   4.354895   2.154426   2.515278   3.063087
    36  H    6.250138   6.177542   3.486068   4.857138   3.774990
    37  H    5.199207   5.449304   2.785967   4.731025   2.578076
    38  H    5.417079   5.079278   2.788646   4.336362   3.135351
                   31         32         33         34         35
    31  H    0.000000
    32  C    2.156918   0.000000
    33  C    2.735646   1.526472   0.000000
    34  H    3.065132   1.097187   2.157903   0.000000
    35  H    2.518632   1.097180   2.163517   1.757450   0.000000
    36  H    3.747822   2.177352   1.093469   2.498775   2.509913
    37  H    3.079192   2.171879   1.095221   2.517972   3.077399
    38  H    2.541548   2.172892   1.095039   3.073955   2.522128
                   36         37         38
    36  H    0.000000
    37  H    1.769823   0.000000
    38  H    1.770333   1.769176   0.000000
 Stoichiometry    C14H19N2O2S(2)
 Framework group  C1[X(C14H19N2O2S)]
 Deg. of freedom   108
 Full point group                 C1      NOp   1
 Largest Abelian subgroup         C1      NOp   1
 Largest concise Abelian subgroup C1      NOp   1
                         Standard orientation:                         
 ---------------------------------------------------------------------
 Center     Atomic      Atomic             Coordinates (Angstroms)
 Number     Number       Type             X           Y           Z
 ---------------------------------------------------------------------
      1          6           0       -2.849714   -0.613930   -1.518322
      2          6           0       -1.633222   -0.320442   -0.859332
      3          6           0       -1.623473   -0.166802    0.561673
      4          6           0       -2.776300   -0.306328    1.338553
      5          6           0       -3.949863   -0.597411    0.660008
      6          6           0       -3.985834   -0.747915   -0.749532
      7          1           0       -2.867839   -0.730628   -2.596566
      8          1           0       -2.755821   -0.189508    2.416759
      9          1           0       -4.870457   -0.714181    1.222426
     10          1           0       -4.933440   -0.976826   -1.225642
     11          7           0       -0.340496    0.136760    0.900436
     12          7           0       -0.405210   -0.129808   -1.371753
     13          6           0        0.437691    0.042833   -0.283739
     14          6           0        0.108213    0.318655    2.269224
     15          1           0       -0.347251    1.220013    2.690266
     16          1           0       -0.164624   -0.552816    2.869476
     17          1           0        1.190875    0.419920    2.291434
     18         16           0        1.430895   -1.818417   -0.092322
     19          8           0        1.047630   -2.829468   -1.088813
     20          8           0        1.393140   -2.186214    1.336561
     21          6           0        3.057899   -1.120181   -0.447505
     22          6           0        2.958346    0.313949    0.059232
     23          1           0        3.195014   -1.168264   -1.530377
     24          1           0        3.803915   -1.733146    0.062012
     25          6           0        1.663494    0.943095   -0.490889
     26          1           0        2.981531    0.326320    1.153980
     27          1           0        3.816295    0.894212   -0.289653
     28          6           0        1.430370    2.373379    0.003831
     29          1           0        1.767575    0.974677   -1.582783
     30          1           0        1.350926    2.388394    1.098439
     31          1           0        2.325856    2.957484   -0.245306
     32          6           0        0.201820    3.044447   -0.610277
     33          6           0        0.066198    4.497196   -0.161674
     34          1           0       -0.701834    2.487811   -0.332095
     35          1           0        0.272954    2.994093   -1.703990
     36          1           0       -0.815982    4.969255   -0.602801
     37          1           0       -0.026755    4.560796    0.927740
     38          1           0        0.944775    5.080573   -0.456437
 ---------------------------------------------------------------------
 Rotational constants (GHZ):           0.4325278           0.3518859           0.2473580
 Standard basis: 6-31G(d) (6D, 7F)
 There are   327 symmetry adapted cartesian basis functions of A   symmetry.
 There are   327 symmetry adapted basis functions of A   symmetry.
   327 basis functions,   632 primitive gaussians,   327 cartesian basis functions
    75 alpha electrons       74 beta electrons
       nuclear repulsion energy      1730.8344232519 Hartrees.
 NAtoms=   38 NActive=   38 NUniq=   38 SFac= 1.00D+00 NAtFMM=   60 NAOKFM=F Big=F
 Integral buffers will be    131072 words long.
 Raffenetti 2 integral format.
 Two-electron integral symmetry is turned on.
 One-electron integrals computed using PRISM.
 NBasis=   327 RedAO= T EigKep=  3.89D-04  NBF=   327
 NBsUse=   327 1.00D-06 EigRej= -1.00D+00 NBFU=   327
 ExpMin= 1.17D-01 ExpMax= 2.19D+04 ExpMxC= 3.30D+03 IAcc=3 IRadAn=         5 AccDes= 0.00D+00
 Harris functional with IExCor= 1009 and IRadAn=       5 diagonalized for initial guess.
 HarFok:  IExCor= 1009 AccDes= 0.00D+00 IRadAn=         5 IDoV= 1 UseB2=F ITyADJ=14
 ICtDFT=  3500011 ScaDFX=  1.000000  1.000000  1.000000  1.000000
 FoFCou: FMM=F IPFlag=           0 FMFlag=      100000 FMFlg1=           0
         NFxFlg=           0 DoJE=T BraDBF=F KetDBF=T FulRan=T
         wScrn=  0.000000 ICntrl=       500 IOpCl=  0 I1Cent=   200000004 NGrid=           0
         NMat0=    1 NMatS0=      1 NMatT0=    0 NMatD0=    1 NMtDS0=    0 NMtDT0=    0
 Petite list used in FoFCou.
 Initial guess <Sx>= 0.0000 <Sy>= 0.0000 <Sz>= 0.5000 <S**2>= 0.7500 S= 0.5000
 Requested convergence on RMS density matrix=1.00D-08 within 128 cycles.
 Requested convergence on MAX density matrix=1.00D-06.
 Requested convergence on             energy=1.00D-06.
 No special actions if energy rises.
 Integral accuracy reduced to 1.0D-05 until final iterations.
 Initial convergence to 1.0D-05 achieved.  Increase integral accuracy.
 SCF Done:  E(UM062X) =  -1202.60370599     A.U. after   21 cycles
            NFock= 21  Conv=0.42D-08     -V/T= 2.0068
 <Sx>= 0.0000 <Sy>= 0.0000 <Sz>= 0.5000 <S**2>= 0.7745 S= 0.5122
 <L.S>=  0.00000000000    
 Annihilation of the first spin contaminant:
 S**2 before annihilation     0.7745,   after     0.7504
 DoSCS=F DFT=T ScalE2(SS,OS)=  1.000000  1.000000
 Range of M.O.s used for correlation:     1   327
 NBasis=   327 NAE=    75 NBE=    74 NFC=     0 NFV=     0
 NROrb=    327 NOA=    75 NOB=    74 NVA=   252 NVB=   253
 Symmetrizing basis deriv contribution to polar:
 IMax=3 JMax=2 DiffMx= 0.00D+00
 G2DrvN: will do    20 centers at a time, making    2 passes.
 Calling FoFCou, ICntrl=  3107 FMM=F I1Cent=   0 AccDes= 0.00D+00.
 Calling FoFCou, ICntrl=  3107 FMM=F I1Cent=   0 AccDes= 0.00D+00.
 End of G2Drv F.D. properties file   721 does not exist.
 End of G2Drv F.D. properties file   722 does not exist.
 End of G2Drv F.D. properties file   788 does not exist.
          IDoAtm=11111111111111111111111111111111111111
          Differentiating once with respect to nuclear coordinates.
 CalDSu exits because no D1Ps are significant.
          There are   117 degrees of freedom in the 1st order CPHF.  IDoFFX=6 NUNeed=     0.
    114 vectors produced by pass  0 Test12= 3.76D-14 1.00D-09 XBig12= 4.40D-01 1.34D-01.
 AX will form    38 AO Fock derivatives at one time.
    111 vectors produced by pass  1 Test12= 3.76D-14 1.00D-09 XBig12= 7.67D-02 5.26D-02.
    111 vectors produced by pass  2 Test12= 3.76D-14 1.00D-09 XBig12= 2.35D-03 7.61D-03.
    111 vectors produced by pass  3 Test12= 3.76D-14 1.00D-09 XBig12= 3.19D-05 7.40D-04.
    111 vectors produced by pass  4 Test12= 3.76D-14 1.00D-09 XBig12= 3.51D-07 5.71D-05.
    111 vectors produced by pass  5 Test12= 3.76D-14 1.00D-09 XBig12= 2.69D-09 3.77D-06.
    100 vectors produced by pass  6 Test12= 3.76D-14 1.00D-09 XBig12= 1.38D-11 2.30D-07.
     39 vectors produced by pass  7 Test12= 3.76D-14 1.00D-09 XBig12= 7.41D-14 1.48D-08.
      1 vectors produced by pass  8 Test12= 3.76D-14 1.00D-09 XBig12= 4.35D-16 1.12D-09.
 InvSVY:  IOpt=1 It=  1 EMax= 6.66D-16
 Solved reduced A of dimension   809 with   117 vectors.
 End of Minotr F.D. properties file   721 does not exist.
 End of Minotr F.D. properties file   722 does not exist.
 End of Minotr F.D. properties file   788 does not exist.

 **********************************************************************

            Population analysis using the SCF Density.

 **********************************************************************

 Orbital symmetries:
 Alpha Orbitals:
       Occupied  (A) (A) (A) (A) (A) (A) (A) (A) (A) (A) (A) (A)
                 (A) (A) (A) (A) (A) (A) (A) (A) (A) (A) (A) (A)
                 (A) (A) (A) (A) (A) (A) (A) (A) (A) (A) (A) (A)
                 (A) (A) (A) (A) (A) (A) (A) (A) (A) (A) (A) (A)
                 (A) (A) (A) (A) (A) (A) (A) (A) (A) (A) (A) (A)
                 (A) (A) (A) (A) (A) (A) (A) (A) (A) (A) (A) (A)
                 (A) (A) (A)
       Virtual   (A) (A) (A) (A) (A) (A) (A) (A) (A) (A) (A) (A)
                 (A) (A) (A) (A) (A) (A) (A) (A) (A) (A) (A) (A)
                 (A) (A) (A) (A) (A) (A) (A) (A) (A) (A) (A) (A)
                 (A) (A) (A) (A) (A) (A) (A) (A) (A) (A) (A) (A)
                 (A) (A) (A) (A) (A) (A) (A) (A) (A) (A) (A) (A)
                 (A) (A) (A) (A) (A) (A) (A) (A) (A) (A) (A) (A)
                 (A) (A) (A) (A) (A) (A) (A) (A) (A) (A) (A) (A)
                 (A) (A) (A) (A) (A) (A) (A) (A) (A) (A) (A) (A)
                 (A) (A) (A) (A) (A) (A) (A) (A) (A) (A) (A) (A)
                 (A) (A) (A) (A) (A) (A) (A) (A) (A) (A) (A) (A)
                 (A) (A) (A) (A) (A) (A) (A) (A) (A) (A) (A) (A)
                 (A) (A) (A) (A) (A) (A) (A) (A) (A) (A) (A) (A)
                 (A) (A) (A) (A) (A) (A) (A) (A) (A) (A) (A) (A)
                 (A) (A) (A) (A) (A) (A) (A) (A) (A) (A) (A) (A)
                 (A) (A) (A) (A) (A) (A) (A) (A) (A) (A) (A) (A)
                 (A) (A) (A) (A) (A) (A) (A) (A) (A) (A) (A) (A)
                 (A) (A) (A) (A) (A) (A) (A) (A) (A) (A) (A) (A)
                 (A) (A) (A) (A) (A) (A) (A) (A) (A) (A) (A) (A)
                 (A) (A) (A) (A) (A) (A) (A) (A) (A) (A) (A) (A)
                 (A) (A) (A) (A) (A) (A) (A) (A) (A) (A) (A) (A)
                 (A) (A) (A) (A) (A) (A) (A) (A) (A) (A) (A) (A)
 Beta  Orbitals:
       Occupied  (A) (A) (A) (A) (A) (A) (A) (A) (A) (A) (A) (A)
                 (A) (A) (A) (A) (A) (A) (A) (A) (A) (A) (A) (A)
                 (A) (A) (A) (A) (A) (A) (A) (A) (A) (A) (A) (A)
                 (A) (A) (A) (A) (A) (A) (A) (A) (A) (A) (A) (A)
                 (A) (A) (A) (A) (A) (A) (A) (A) (A) (A) (A) (A)
                 (A) (A) (A) (A) (A) (A) (A) (A) (A) (A) (A) (A)
                 (A) (A)
       Virtual   (A) (A) (A) (A) (A) (A) (A) (A) (A) (A) (A) (A)
                 (A) (A) (A) (A) (A) (A) (A) (A) (A) (A) (A) (A)
                 (A) (A) (A) (A) (A) (A) (A) (A) (A) (A) (A) (A)
                 (A) (A) (A) (A) (A) (A) (A) (A) (A) (A) (A) (A)
                 (A) (A) (A) (A) (A) (A) (A) (A) (A) (A) (A) (A)
                 (A) (A) (A) (A) (A) (A) (A) (A) (A) (A) (A) (A)
                 (A) (A) (A) (A) (A) (A) (A) (A) (A) (A) (A) (A)
                 (A) (A) (A) (A) (A) (A) (A) (A) (A) (A) (A) (A)
                 (A) (A) (A) (A) (A) (A) (A) (A) (A) (A) (A) (A)
                 (A) (A) (A) (A) (A) (A) (A) (A) (A) (A) (A) (A)
                 (A) (A) (A) (A) (A) (A) (A) (A) (A) (A) (A) (A)
                 (A) (A) (A) (A) (A) (A) (A) (A) (A) (A) (A) (A)
                 (A) (A) (A) (A) (A) (A) (A) (A) (A) (A) (A) (A)
                 (A) (A) (A) (A) (A) (A) (A) (A) (A) (A) (A) (A)
                 (A) (A) (A) (A) (A) (A) (A) (A) (A) (A) (A) (A)
                 (A) (A) (A) (A) (A) (A) (A) (A) (A) (A) (A) (A)
                 (A) (A) (A) (A) (A) (A) (A) (A) (A) (A) (A) (A)
                 (A) (A) (A) (A) (A) (A) (A) (A) (A) (A) (A) (A)
                 (A) (A) (A) (A) (A) (A) (A) (A) (A) (A) (A) (A)
                 (A) (A) (A) (A) (A) (A) (A) (A) (A) (A) (A) (A)
                 (A) (A) (A) (A) (A) (A) (A) (A) (A) (A) (A) (A)
                 (A)
 The electronic state is 2-A.
 Alpha  occ. eigenvalues --  -90.10417 -19.62801 -19.62672 -14.81815 -14.75425
 Alpha  occ. eigenvalues --  -10.64610 -10.59900 -10.59622 -10.59000 -10.58117
 Alpha  occ. eigenvalues --  -10.58117 -10.57866 -10.56318 -10.56019 -10.55987
 Alpha  occ. eigenvalues --  -10.55535 -10.55320 -10.54710 -10.53895  -8.42307
 Alpha  occ. eigenvalues --   -6.34483  -6.34350  -6.34269  -1.20485  -1.13847
 Alpha  occ. eigenvalues --   -1.10107  -1.00901  -0.96770  -0.94314  -0.90028
 Alpha  occ. eigenvalues --   -0.85728  -0.84982  -0.82647  -0.81663  -0.76654
 Alpha  occ. eigenvalues --   -0.75176  -0.69659  -0.68799  -0.67887  -0.67261
 Alpha  occ. eigenvalues --   -0.65480  -0.60109  -0.59327  -0.57964  -0.57609
 Alpha  occ. eigenvalues --   -0.55659  -0.54654  -0.53112  -0.52239  -0.51613
 Alpha  occ. eigenvalues --   -0.51036  -0.50481  -0.50110  -0.49320  -0.48810
 Alpha  occ. eigenvalues --   -0.48490  -0.47399  -0.46794  -0.45441  -0.44134
 Alpha  occ. eigenvalues --   -0.43130  -0.42286  -0.41657  -0.40914  -0.40520
 Alpha  occ. eigenvalues --   -0.39654  -0.38806  -0.38465  -0.37355  -0.37145
 Alpha  occ. eigenvalues --   -0.36059  -0.34839  -0.31710  -0.28787  -0.21858
 Alpha virt. eigenvalues --    0.02464   0.04577   0.08274   0.09234   0.11343
 Alpha virt. eigenvalues --    0.11572   0.12958   0.13604   0.14175   0.14496
 Alpha virt. eigenvalues --    0.15890   0.16789   0.17554   0.18530   0.19294
 Alpha virt. eigenvalues --    0.19620   0.20319   0.20416   0.20673   0.21500
 Alpha virt. eigenvalues --    0.21859   0.21996   0.22767   0.22893   0.23203
 Alpha virt. eigenvalues --    0.23633   0.24514   0.25087   0.27262   0.28071
 Alpha virt. eigenvalues --    0.28697   0.29991   0.30644   0.31591   0.32478
 Alpha virt. eigenvalues --    0.33614   0.35614   0.36934   0.38142   0.40749
 Alpha virt. eigenvalues --    0.42206   0.42538   0.45108   0.49506   0.51186
 Alpha virt. eigenvalues --    0.51687   0.53456   0.53792   0.54922   0.56138
 Alpha virt. eigenvalues --    0.56834   0.58094   0.58350   0.59179   0.59835
 Alpha virt. eigenvalues --    0.60033   0.61353   0.62314   0.63230   0.63449
 Alpha virt. eigenvalues --    0.64428   0.65245   0.65365   0.66695   0.68126
 Alpha virt. eigenvalues --    0.68701   0.69804   0.70463   0.71719   0.72516
 Alpha virt. eigenvalues --    0.72705   0.74481   0.75728   0.76407   0.78808
 Alpha virt. eigenvalues --    0.79346   0.81232   0.81587   0.82763   0.84522
 Alpha virt. eigenvalues --    0.85561   0.86379   0.87214   0.87630   0.88692
 Alpha virt. eigenvalues --    0.90127   0.90572   0.91266   0.91338   0.91829
 Alpha virt. eigenvalues --    0.92967   0.93367   0.93429   0.94968   0.95623
 Alpha virt. eigenvalues --    0.96199   0.96590   0.97671   0.97764   0.98073
 Alpha virt. eigenvalues --    0.99180   0.99868   1.00556   1.02272   1.02558
 Alpha virt. eigenvalues --    1.03059   1.03640   1.04435   1.04858   1.06208
 Alpha virt. eigenvalues --    1.08739   1.09862   1.10929   1.11892   1.12275
 Alpha virt. eigenvalues --    1.12990   1.15023   1.15413   1.18555   1.18647
 Alpha virt. eigenvalues --    1.19553   1.20498   1.21388   1.25240   1.27502
 Alpha virt. eigenvalues --    1.29284   1.30761   1.32604   1.32899   1.36093
 Alpha virt. eigenvalues --    1.37259   1.39106   1.41986   1.42787   1.43402
 Alpha virt. eigenvalues --    1.45527   1.46844   1.48201   1.49809   1.51729
 Alpha virt. eigenvalues --    1.52694   1.54136   1.55071   1.56459   1.57930
 Alpha virt. eigenvalues --    1.59352   1.63624   1.66128   1.71497   1.73250
 Alpha virt. eigenvalues --    1.77261   1.78274   1.81230   1.82439   1.82738
 Alpha virt. eigenvalues --    1.84632   1.85956   1.86973   1.87679   1.87905
 Alpha virt. eigenvalues --    1.88698   1.89399   1.91371   1.93128   1.93575
 Alpha virt. eigenvalues --    1.93955   1.94638   1.96952   1.97747   1.99372
 Alpha virt. eigenvalues --    1.99623   2.00772   2.01737   2.02707   2.03559
 Alpha virt. eigenvalues --    2.04261   2.05126   2.06115   2.07026   2.07526
 Alpha virt. eigenvalues --    2.10420   2.11586   2.11877   2.13856   2.15445
 Alpha virt. eigenvalues --    2.16581   2.16670   2.19908   2.21568   2.22511
 Alpha virt. eigenvalues --    2.24169   2.24649   2.27112   2.27641   2.29065
 Alpha virt. eigenvalues --    2.30602   2.31067   2.31292   2.32763   2.33185
 Alpha virt. eigenvalues --    2.36824   2.39469   2.40114   2.41536   2.44695
 Alpha virt. eigenvalues --    2.45586   2.47750   2.50488   2.51551   2.54627
 Alpha virt. eigenvalues --    2.57241   2.58888   2.60433   2.62239   2.64367
 Alpha virt. eigenvalues --    2.66635   2.68227   2.69192   2.71740   2.73373
 Alpha virt. eigenvalues --    2.74618   2.78704   2.81108   2.84591   2.85892
 Alpha virt. eigenvalues --    2.88222   2.90474   2.91008   2.96989   3.06236
 Alpha virt. eigenvalues --    3.13745   3.25124   3.45176   3.92686   3.98397
 Alpha virt. eigenvalues --    4.08671   4.10393   4.11205   4.15226   4.19707
 Alpha virt. eigenvalues --    4.23591   4.26055   4.26823   4.33999   4.39718
 Alpha virt. eigenvalues --    4.42915   4.44465   4.49980   4.53678   4.60968
 Alpha virt. eigenvalues --    4.76354   4.82383
  Beta  occ. eigenvalues --  -90.10183 -19.62609 -19.62493 -14.81660 -14.74984
  Beta  occ. eigenvalues --  -10.64730 -10.59803 -10.59630 -10.58940 -10.58174
  Beta  occ. eigenvalues --  -10.58079 -10.57872 -10.56208 -10.56061 -10.55993
  Beta  occ. eigenvalues --  -10.55465 -10.55341 -10.54707 -10.53894  -8.42163
  Beta  occ. eigenvalues --   -6.34282  -6.34209  -6.33915  -1.19861  -1.13284
  Beta  occ. eigenvalues --   -1.09465  -1.00020  -0.96572  -0.94008  -0.89921
  Beta  occ. eigenvalues --   -0.85538  -0.84819  -0.82281  -0.81415  -0.76415
  Beta  occ. eigenvalues --   -0.74713  -0.69422  -0.68513  -0.67315  -0.66948
  Beta  occ. eigenvalues --   -0.65213  -0.59649  -0.59033  -0.57647  -0.57361
  Beta  occ. eigenvalues --   -0.55415  -0.54174  -0.52893  -0.51973  -0.51392
  Beta  occ. eigenvalues --   -0.50720  -0.50171  -0.49799  -0.48917  -0.48392
  Beta  occ. eigenvalues --   -0.48218  -0.47197  -0.46149  -0.45353  -0.43970
  Beta  occ. eigenvalues --   -0.42887  -0.42081  -0.41518  -0.40401  -0.40005
  Beta  occ. eigenvalues --   -0.39531  -0.37996  -0.37174  -0.36843  -0.35875
  Beta  occ. eigenvalues --   -0.35265  -0.33788  -0.29603  -0.27296
  Beta virt. eigenvalues --   -0.08455   0.03827   0.05748   0.08807   0.10126
  Beta virt. eigenvalues --    0.11698   0.11760   0.13080   0.13904   0.14518
  Beta virt. eigenvalues --    0.14914   0.15923   0.16844   0.17610   0.18585
  Beta virt. eigenvalues --    0.19426   0.19722   0.20434   0.20491   0.20736
  Beta virt. eigenvalues --    0.21582   0.22055   0.22090   0.22820   0.23200
  Beta virt. eigenvalues --    0.23259   0.23830   0.24696   0.25144   0.27434
  Beta virt. eigenvalues --    0.28119   0.28807   0.30124   0.30797   0.31753
  Beta virt. eigenvalues --    0.32654   0.33716   0.35682   0.37175   0.38347
  Beta virt. eigenvalues --    0.40999   0.42393   0.42836   0.45422   0.49822
  Beta virt. eigenvalues --    0.51533   0.51844   0.53653   0.53940   0.55181
  Beta virt. eigenvalues --    0.56373   0.57011   0.58360   0.58794   0.59412
  Beta virt. eigenvalues --    0.59998   0.60265   0.61481   0.62714   0.63502
  Beta virt. eigenvalues --    0.63661   0.64604   0.65388   0.65477   0.67173
  Beta virt. eigenvalues --    0.68487   0.69212   0.69912   0.70793   0.71887
  Beta virt. eigenvalues --    0.72745   0.72857   0.74545   0.75983   0.76708
  Beta virt. eigenvalues --    0.79299   0.79553   0.81372   0.81851   0.82992
  Beta virt. eigenvalues --    0.84636   0.85926   0.86533   0.87394   0.87739
  Beta virt. eigenvalues --    0.88810   0.90271   0.90836   0.91358   0.91593
  Beta virt. eigenvalues --    0.91881   0.93197   0.93465   0.93623   0.95095
  Beta virt. eigenvalues --    0.95752   0.96443   0.96788   0.97769   0.97992
  Beta virt. eigenvalues --    0.98375   0.99334   1.00044   1.00794   1.02373
  Beta virt. eigenvalues --    1.02929   1.03257   1.03967   1.04615   1.05089
  Beta virt. eigenvalues --    1.06516   1.08854   1.10050   1.11284   1.12031
  Beta virt. eigenvalues --    1.12528   1.13360   1.15368   1.15836   1.18859
  Beta virt. eigenvalues --    1.18910   1.19776   1.20797   1.21666   1.25386
  Beta virt. eigenvalues --    1.27619   1.29496   1.31043   1.32904   1.33521
  Beta virt. eigenvalues --    1.36393   1.37605   1.39325   1.42248   1.43223
  Beta virt. eigenvalues --    1.43646   1.45833   1.47201   1.48311   1.50238
  Beta virt. eigenvalues --    1.52170   1.53395   1.54598   1.55225   1.56550
  Beta virt. eigenvalues --    1.58087   1.59516   1.63908   1.66287   1.71925
  Beta virt. eigenvalues --    1.73338   1.77524   1.78433   1.81372   1.82615
  Beta virt. eigenvalues --    1.82896   1.84804   1.86172   1.87209   1.87941
  Beta virt. eigenvalues --    1.88051   1.88919   1.89705   1.91519   1.93369
  Beta virt. eigenvalues --    1.93806   1.94123   1.95001   1.97091   1.97943
  Beta virt. eigenvalues --    1.99496   1.99806   2.00957   2.01864   2.02888
  Beta virt. eigenvalues --    2.03692   2.04474   2.05396   2.06432   2.07274
  Beta virt. eigenvalues --    2.07895   2.10523   2.11781   2.12065   2.14219
  Beta virt. eigenvalues --    2.15735   2.16852   2.16902   2.20210   2.21831
  Beta virt. eigenvalues --    2.22677   2.24253   2.25161   2.27451   2.28021
  Beta virt. eigenvalues --    2.29267   2.30883   2.31141   2.31651   2.32984
  Beta virt. eigenvalues --    2.33443   2.37023   2.39653   2.40180   2.41489
  Beta virt. eigenvalues --    2.44910   2.45651   2.48167   2.50655   2.51718
  Beta virt. eigenvalues --    2.54847   2.57618   2.59125   2.60634   2.62414
  Beta virt. eigenvalues --    2.64658   2.66889   2.68553   2.69929   2.72289
  Beta virt. eigenvalues --    2.73636   2.74879   2.78979   2.81260   2.85090
  Beta virt. eigenvalues --    2.86055   2.88482   2.90692   2.91269   2.97297
  Beta virt. eigenvalues --    3.06478   3.13923   3.25997   3.45754   3.92893
  Beta virt. eigenvalues --    3.99356   4.09009   4.10747   4.11597   4.15576
  Beta virt. eigenvalues --    4.19753   4.23710   4.26138   4.27114   4.34052
  Beta virt. eigenvalues --    4.40080   4.43174   4.44888   4.50185   4.53721
  Beta virt. eigenvalues --    4.60900   4.76280   4.82489
          Condensed to atoms (all electrons):
               1          2          3          4          5          6
     1  C    4.962758   0.509411  -0.057061  -0.041180  -0.031258   0.545837
     2  C    0.509411   4.668178   0.455739  -0.039001  -0.039451  -0.012841
     3  C   -0.057061   0.455739   4.765210   0.490070   0.003709  -0.039972
     4  C   -0.041180  -0.039001   0.490070   5.013728   0.526644  -0.039878
     5  C   -0.031258  -0.039451   0.003709   0.526644   4.903545   0.511932
     6  C    0.545837  -0.012841  -0.039972  -0.039878   0.511932   4.914091
     7  H    0.358341  -0.029421   0.005996   0.000057   0.004056  -0.041187
     8  H    0.000215   0.003384  -0.032203   0.360359  -0.035779   0.003621
     9  H    0.003522   0.000900   0.002427  -0.035117   0.368154  -0.035497
    10  H   -0.033838   0.002659   0.000682   0.003996  -0.037812   0.370101
    11  N    0.009677  -0.048776   0.283216  -0.094248   0.005853   0.000029
    12  N   -0.074043   0.385261  -0.068210   0.011311  -0.000415   0.005121
    13  C    0.006612  -0.092221  -0.089292   0.009216  -0.000207  -0.000210
    14  C   -0.000137   0.006191  -0.039952  -0.000503  -0.000058   0.000011
    15  H   -0.000003  -0.000235  -0.003361   0.002037   0.000020  -0.000002
    16  H   -0.000007   0.000016  -0.001568   0.002491  -0.000004  -0.000002
    17  H    0.000005  -0.000135   0.003413   0.000085  -0.000001   0.000000
    18  S    0.000205   0.001503   0.003765   0.000102  -0.000028  -0.000024
    19  O    0.000114   0.002752  -0.000617  -0.000028   0.000002  -0.000004
    20  O   -0.000013  -0.000609   0.001862   0.000080  -0.000003   0.000001
    21  C    0.000005   0.000194  -0.000196  -0.000001  -0.000000  -0.000000
    22  C    0.000003  -0.000207  -0.000129   0.000003  -0.000000  -0.000000
    23  H   -0.000000   0.000015  -0.000000  -0.000000   0.000000  -0.000000
    24  H    0.000000  -0.000000   0.000001   0.000000  -0.000000  -0.000000
    25  C   -0.000206   0.005331   0.003316  -0.000152   0.000004   0.000004
    26  H   -0.000000   0.000002  -0.000007  -0.000000   0.000000  -0.000000
    27  H   -0.000000   0.000005   0.000001  -0.000000   0.000000   0.000000
    28  C    0.000006  -0.000442   0.000878  -0.000012  -0.000001   0.000001
    29  H   -0.000032   0.000276   0.000014  -0.000001  -0.000000   0.000000
    30  H   -0.000000   0.000021  -0.000020  -0.000002  -0.000000  -0.000000
    31  H    0.000000   0.000003  -0.000005  -0.000000   0.000000   0.000000
    32  C   -0.000047  -0.000058  -0.000476   0.000029   0.000004  -0.000001
    33  C   -0.000001   0.000019  -0.000022  -0.000001   0.000000  -0.000000
    34  H   -0.000024   0.001873   0.003766   0.000032  -0.000027  -0.000014
    35  H    0.000001   0.000101  -0.000066  -0.000004   0.000000  -0.000000
    36  H   -0.000000  -0.000000  -0.000001   0.000000   0.000000   0.000000
    37  H    0.000000   0.000001  -0.000002  -0.000000   0.000000  -0.000000
    38  H   -0.000000   0.000000   0.000000   0.000000   0.000000  -0.000000
               7          8          9         10         11         12
     1  C    0.358341   0.000215   0.003522  -0.033838   0.009677  -0.074043
     2  C   -0.029421   0.003384   0.000900   0.002659  -0.048776   0.385261
     3  C    0.005996  -0.032203   0.002427   0.000682   0.283216  -0.068210
     4  C    0.000057   0.360359  -0.035117   0.003996  -0.094248   0.011311
     5  C    0.004056  -0.035779   0.368154  -0.037812   0.005853  -0.000415
     6  C   -0.041187   0.003621  -0.035497   0.370101   0.000029   0.005121
     7  H    0.523014   0.000014  -0.000124  -0.004286  -0.000085  -0.001667
     8  H    0.000014   0.535952  -0.003919  -0.000134  -0.007304  -0.000126
     9  H   -0.000124  -0.003919   0.534137  -0.004284  -0.000115   0.000003
    10  H   -0.004286  -0.000134  -0.004284   0.534828   0.000004  -0.000089
    11  N   -0.000085  -0.007304  -0.000115   0.000004   7.202427  -0.094685
    12  N   -0.001667  -0.000126   0.000003  -0.000089  -0.094685   7.068698
    13  C   -0.000246  -0.000209   0.000002   0.000005   0.216388   0.322805
    14  C    0.000002   0.004051  -0.000000  -0.000000   0.258869   0.004132
    15  H    0.000000   0.000115   0.000000   0.000000  -0.044516  -0.000072
    16  H    0.000000   0.000940   0.000001  -0.000000  -0.038724  -0.000132
    17  H   -0.000000  -0.000020  -0.000000  -0.000000  -0.031912   0.000096
    18  S    0.000021  -0.000010  -0.000000  -0.000000  -0.052748  -0.044026
    19  O    0.000008  -0.000000   0.000000  -0.000000   0.001135   0.002632
    20  O   -0.000000   0.000003  -0.000000   0.000000   0.001091   0.001451
    21  C   -0.000000  -0.000000   0.000000   0.000000   0.003901   0.001448
    22  C    0.000000   0.000000   0.000000   0.000000   0.000528   0.004972
    23  H    0.000000   0.000000   0.000000  -0.000000   0.000007   0.000247
    24  H   -0.000000   0.000000  -0.000000  -0.000000  -0.000077  -0.000053
    25  C   -0.000004   0.000001  -0.000000  -0.000000  -0.054895  -0.054219
    26  H   -0.000000  -0.000000   0.000000   0.000000   0.001061  -0.000028
    27  H    0.000000  -0.000000  -0.000000  -0.000000  -0.000099  -0.000089
    28  C   -0.000000   0.000001  -0.000000   0.000000  -0.001490  -0.004051
    29  H    0.000004   0.000000   0.000000  -0.000000   0.005010   0.001075
    30  H   -0.000000  -0.000001   0.000000  -0.000000   0.001122  -0.000037
    31  H   -0.000000  -0.000000  -0.000000  -0.000000   0.000168  -0.000123
    32  C    0.000002   0.000001   0.000000   0.000000  -0.005851   0.002091
    33  C    0.000000   0.000000  -0.000000   0.000000   0.000011   0.000148
    34  H    0.000002   0.000005  -0.000000  -0.000000  -0.000444  -0.002477
    35  H    0.000002   0.000000   0.000000  -0.000000   0.000391   0.000875
    36  H   -0.000000  -0.000000  -0.000000  -0.000000  -0.000001   0.000002
    37  H    0.000000  -0.000000   0.000000  -0.000000   0.000027  -0.000000
    38  H    0.000000   0.000000  -0.000000  -0.000000  -0.000004  -0.000002
              13         14         15         16         17         18
     1  C    0.006612  -0.000137  -0.000003  -0.000007   0.000005   0.000205
     2  C   -0.092221   0.006191  -0.000235   0.000016  -0.000135   0.001503
     3  C   -0.089292  -0.039952  -0.003361  -0.001568   0.003413   0.003765
     4  C    0.009216  -0.000503   0.002037   0.002491   0.000085   0.000102
     5  C   -0.000207  -0.000058   0.000020  -0.000004  -0.000001  -0.000028
     6  C   -0.000210   0.000011  -0.000002  -0.000002   0.000000  -0.000024
     7  H   -0.000246   0.000002   0.000000   0.000000  -0.000000   0.000021
     8  H   -0.000209   0.004051   0.000115   0.000940  -0.000020  -0.000010
     9  H    0.000002  -0.000000   0.000000   0.000001  -0.000000  -0.000000
    10  H    0.000005  -0.000000   0.000000  -0.000000  -0.000000  -0.000000
    11  N    0.216388   0.258869  -0.044516  -0.038724  -0.031912  -0.052748
    12  N    0.322805   0.004132  -0.000072  -0.000132   0.000096  -0.044026
    13  C    5.384251  -0.034088   0.002607  -0.000104  -0.003092   0.141952
    14  C   -0.034088   5.003007   0.376886   0.383623   0.384280  -0.001222
    15  H    0.002607   0.376886   0.549528  -0.035732  -0.028319  -0.000038
    16  H   -0.000104   0.383623  -0.035732   0.492585  -0.021504   0.000805
    17  H   -0.003092   0.384280  -0.028319  -0.021504   0.502814   0.000923
    18  S    0.141952  -0.001222  -0.000038   0.000805   0.000923  14.063610
    19  O   -0.031717   0.000007   0.000000  -0.000010   0.000002   0.417135
    20  O   -0.032246   0.002018   0.000393   0.002132   0.000154   0.358438
    21  C   -0.052491   0.000323   0.000003   0.000003  -0.000657   0.094325
    22  C   -0.042009  -0.002788   0.000086   0.000019   0.000707  -0.030626
    23  H   -0.001433  -0.000017   0.000000  -0.000000   0.000011  -0.009477
    24  H    0.001577  -0.000002  -0.000001   0.000004  -0.000000  -0.009766
    25  C    0.293145   0.001310   0.000423  -0.000323   0.001505  -0.070085
    26  H   -0.006427  -0.002482  -0.000024   0.000015   0.006554   0.001081
    27  H    0.004767   0.000099  -0.000000  -0.000001   0.000007   0.002019
    28  C   -0.045242  -0.003059  -0.001090   0.000246  -0.001841   0.001247
    29  H   -0.048777  -0.000159  -0.000002   0.000006   0.000012   0.001943
    30  H   -0.009787   0.001613   0.000445   0.000161   0.001039  -0.000188
    31  H    0.006025  -0.000012  -0.000008  -0.000001   0.000026  -0.000106
    32  C    0.001878   0.000265   0.000397  -0.000015   0.000009   0.000219
    33  C    0.000045  -0.000016  -0.000003  -0.000000   0.000001   0.000003
    34  H    0.004948  -0.000534   0.000025   0.000005  -0.000010   0.000116
    35  H   -0.002010  -0.000007  -0.000002   0.000000  -0.000001  -0.000001
    36  H    0.000005   0.000001  -0.000000  -0.000000  -0.000000  -0.000000
    37  H   -0.000024  -0.000017   0.000071   0.000000  -0.000005  -0.000000
    38  H    0.000005   0.000000   0.000001  -0.000000   0.000000   0.000000
              19         20         21         22         23         24
     1  C    0.000114  -0.000013   0.000005   0.000003  -0.000000   0.000000
     2  C    0.002752  -0.000609   0.000194  -0.000207   0.000015  -0.000000
     3  C   -0.000617   0.001862  -0.000196  -0.000129  -0.000000   0.000001
     4  C   -0.000028   0.000080  -0.000001   0.000003  -0.000000   0.000000
     5  C    0.000002  -0.000003  -0.000000  -0.000000   0.000000  -0.000000
     6  C   -0.000004   0.000001  -0.000000  -0.000000  -0.000000  -0.000000
     7  H    0.000008  -0.000000  -0.000000   0.000000   0.000000  -0.000000
     8  H   -0.000000   0.000003  -0.000000   0.000000   0.000000   0.000000
     9  H    0.000000  -0.000000   0.000000   0.000000   0.000000  -0.000000
    10  H   -0.000000   0.000000   0.000000   0.000000  -0.000000  -0.000000
    11  N    0.001135   0.001091   0.003901   0.000528   0.000007  -0.000077
    12  N    0.002632   0.001451   0.001448   0.004972   0.000247  -0.000053
    13  C   -0.031717  -0.032246  -0.052491  -0.042009  -0.001433   0.001577
    14  C    0.000007   0.002018   0.000323  -0.002788  -0.000017  -0.000002
    15  H    0.000000   0.000393   0.000003   0.000086   0.000000  -0.000001
    16  H   -0.000010   0.002132   0.000003   0.000019  -0.000000   0.000004
    17  H    0.000002   0.000154  -0.000657   0.000707   0.000011  -0.000000
    18  S    0.417135   0.358438   0.094325  -0.030626  -0.009477  -0.009766
    19  O    8.224467  -0.046355  -0.050154   0.002118   0.000591  -0.000035
    20  O   -0.046355   8.337540  -0.050750   0.001737   0.001826  -0.000035
    21  C   -0.050154  -0.050750   5.684191   0.290706   0.349685   0.353429
    22  C    0.002118   0.001737   0.290706   5.189295  -0.033626  -0.024460
    23  H    0.000591   0.001826   0.349685  -0.033626   0.481495  -0.017124
    24  H   -0.000035  -0.000035   0.353429  -0.024460  -0.017124   0.462138
    25  C    0.001428   0.000398  -0.041583   0.333057  -0.001538   0.003477
    26  H    0.000003   0.002899  -0.040452   0.373528   0.004322  -0.002728
    27  H   -0.000039  -0.000026  -0.027215   0.380063  -0.004943  -0.001504
    28  C   -0.000016  -0.000056   0.004156  -0.046164  -0.000031  -0.000068
    29  H   -0.000105  -0.000016  -0.002311  -0.045170   0.003516   0.000073
    30  H   -0.000000  -0.000014   0.000132  -0.004868   0.000000   0.000004
    31  H    0.000000   0.000000   0.000082  -0.003553  -0.000005  -0.000003
    32  C   -0.000000  -0.000000  -0.000171   0.004358  -0.000001   0.000001
    33  C   -0.000000  -0.000000   0.000001  -0.000111  -0.000000  -0.000000
    34  H   -0.000000  -0.000001  -0.000007  -0.000028   0.000000   0.000000
    35  H   -0.000000   0.000000   0.000002   0.000100  -0.000001   0.000000
    36  H    0.000000   0.000000  -0.000000   0.000001  -0.000000   0.000000
    37  H    0.000000   0.000000   0.000000   0.000002  -0.000000   0.000000
    38  H    0.000000   0.000000   0.000000  -0.000004   0.000000  -0.000000
              25         26         27         28         29         30
     1  C   -0.000206  -0.000000  -0.000000   0.000006  -0.000032  -0.000000
     2  C    0.005331   0.000002   0.000005  -0.000442   0.000276   0.000021
     3  C    0.003316  -0.000007   0.000001   0.000878   0.000014  -0.000020
     4  C   -0.000152  -0.000000  -0.000000  -0.000012  -0.000001  -0.000002
     5  C    0.000004   0.000000   0.000000  -0.000001  -0.000000  -0.000000
     6  C    0.000004  -0.000000   0.000000   0.000001   0.000000  -0.000000
     7  H   -0.000004  -0.000000   0.000000  -0.000000   0.000004  -0.000000
     8  H    0.000001  -0.000000  -0.000000   0.000001   0.000000  -0.000001
     9  H   -0.000000   0.000000  -0.000000  -0.000000   0.000000   0.000000
    10  H   -0.000000   0.000000  -0.000000   0.000000  -0.000000  -0.000000
    11  N   -0.054895   0.001061  -0.000099  -0.001490   0.005010   0.001122
    12  N   -0.054219  -0.000028  -0.000089  -0.004051   0.001075  -0.000037
    13  C    0.293145  -0.006427   0.004767  -0.045242  -0.048777  -0.009787
    14  C    0.001310  -0.002482   0.000099  -0.003059  -0.000159   0.001613
    15  H    0.000423  -0.000024  -0.000000  -0.001090  -0.000002   0.000445
    16  H   -0.000323   0.000015  -0.000001   0.000246   0.000006   0.000161
    17  H    0.001505   0.006554   0.000007  -0.001841   0.000012   0.001039
    18  S   -0.070085   0.001081   0.002019   0.001247   0.001943  -0.000188
    19  O    0.001428   0.000003  -0.000039  -0.000016  -0.000105  -0.000000
    20  O    0.000398   0.002899  -0.000026  -0.000056  -0.000016  -0.000014
    21  C   -0.041583  -0.040452  -0.027215   0.004156  -0.002311   0.000132
    22  C    0.333057   0.373528   0.380063  -0.046164  -0.045170  -0.004868
    23  H   -0.001538   0.004322  -0.004943  -0.000031   0.003516   0.000000
    24  H    0.003477  -0.002728  -0.001504  -0.000068   0.000073   0.000004
    25  C    5.144697  -0.033734  -0.031035   0.367566   0.387399  -0.035660
    26  H   -0.033734   0.533537  -0.027082  -0.003650   0.004834   0.003215
    27  H   -0.031035  -0.027082   0.518797  -0.002257  -0.005583  -0.000189
    28  C    0.367566  -0.003650  -0.002257   5.062147  -0.033469   0.376640
    29  H    0.387399   0.004834  -0.005583  -0.033469   0.537151   0.005050
    30  H   -0.035660   0.003215  -0.000189   0.376640   0.005050   0.587849
    31  H   -0.038720  -0.000168   0.003464   0.382125  -0.004675  -0.034003
    32  C   -0.042967   0.000005  -0.000031   0.367150  -0.004160  -0.039995
    33  C    0.004168  -0.000002  -0.000001  -0.050065   0.000091  -0.002356
    34  H   -0.008875   0.000003  -0.000001  -0.036434  -0.000180  -0.004676
    35  H   -0.002228   0.000003  -0.000002  -0.043474   0.004550   0.005275
    36  H   -0.000134   0.000000   0.000000   0.004360  -0.000001  -0.000055
    37  H    0.000108  -0.000001   0.000000  -0.005179   0.000005   0.004419
    38  H   -0.000054   0.000000  -0.000001  -0.004879  -0.000000  -0.000301
              31         32         33         34         35         36
     1  C    0.000000  -0.000047  -0.000001  -0.000024   0.000001  -0.000000
     2  C    0.000003  -0.000058   0.000019   0.001873   0.000101  -0.000000
     3  C   -0.000005  -0.000476  -0.000022   0.003766  -0.000066  -0.000001
     4  C   -0.000000   0.000029  -0.000001   0.000032  -0.000004   0.000000
     5  C    0.000000   0.000004   0.000000  -0.000027   0.000000   0.000000
     6  C    0.000000  -0.000001  -0.000000  -0.000014  -0.000000   0.000000
     7  H   -0.000000   0.000002   0.000000   0.000002   0.000002  -0.000000
     8  H   -0.000000   0.000001   0.000000   0.000005   0.000000  -0.000000
     9  H   -0.000000   0.000000  -0.000000  -0.000000   0.000000  -0.000000
    10  H   -0.000000   0.000000   0.000000  -0.000000  -0.000000  -0.000000
    11  N    0.000168  -0.005851   0.000011  -0.000444   0.000391  -0.000001
    12  N   -0.000123   0.002091   0.000148  -0.002477   0.000875   0.000002
    13  C    0.006025   0.001878   0.000045   0.004948  -0.002010   0.000005
    14  C   -0.000012   0.000265  -0.000016  -0.000534  -0.000007   0.000001
    15  H   -0.000008   0.000397  -0.000003   0.000025  -0.000002  -0.000000
    16  H   -0.000001  -0.000015  -0.000000   0.000005   0.000000  -0.000000
    17  H    0.000026   0.000009   0.000001  -0.000010  -0.000001  -0.000000
    18  S   -0.000106   0.000219   0.000003   0.000116  -0.000001  -0.000000
    19  O    0.000000  -0.000000  -0.000000  -0.000000  -0.000000   0.000000
    20  O    0.000000  -0.000000  -0.000000  -0.000001   0.000000   0.000000
    21  C    0.000082  -0.000171   0.000001  -0.000007   0.000002  -0.000000
    22  C   -0.003553   0.004358  -0.000111  -0.000028   0.000100   0.000001
    23  H   -0.000005  -0.000001  -0.000000   0.000000  -0.000001  -0.000000
    24  H   -0.000003   0.000001  -0.000000   0.000000   0.000000   0.000000
    25  C   -0.038720  -0.042967   0.004168  -0.008875  -0.002228  -0.000134
    26  H   -0.000168   0.000005  -0.000002   0.000003   0.000003   0.000000
    27  H    0.003464  -0.000031  -0.000001  -0.000001  -0.000002   0.000000
    28  C    0.382125   0.367150  -0.050065  -0.036434  -0.043474   0.004360
    29  H   -0.004675  -0.004160   0.000091  -0.000180   0.004550  -0.000001
    30  H   -0.034003  -0.039995  -0.002356  -0.004676   0.005275  -0.000055
    31  H    0.570875  -0.038097  -0.003632   0.004826  -0.004140  -0.000010
    32  C   -0.038097   5.020002   0.354438   0.385404   0.390923  -0.029379
    33  C   -0.003632   0.354438   5.101138  -0.036436  -0.036659   0.383056
    34  H    0.004826   0.385404  -0.036436   0.557475  -0.032167  -0.002764
    35  H   -0.004140   0.390923  -0.036659  -0.032167   0.555603  -0.002708
    36  H   -0.000010  -0.029379   0.383056  -0.002764  -0.002708   0.534066
    37  H   -0.000273  -0.035902   0.382851  -0.004065   0.004671  -0.027775
[...]
 -0.00102517,0.00001046,-0.00002679,-0.00004959,-0.00000026,0.00025297,
 -0.00003815,-0.00000763,-0.02360301,-0.01277854,0.00716194,-0.00007251
 ,0.00006910,-0.00007307,0.00119664,-0.00019403,-0.00002975,-0.00332423
 ,0.00301953,-0.00264231,-0.22918645,-0.11094638,0.05619220,0.00463962,
 0.00268495,-0.00155989,0.24955852,-0.00004636,0.00007302,0.00001774,-0
 .00063715,-0.00050806,0.00037007,-0.00059150,-0.00085188,-0.00015742,-
 0.00009641,0.00003986,-0.00004349,0.00009935,0.00001967,0.00003117,0.0
 0008753,-0.00000632,0.00000403,0.00000684,0.00000725,0.00001192,0.0000
 0956,0.00001564,-0.00002152,0.00001259,0.00000968,-0.00000168,0.000009
 77,0.00000682,-0.00000130,0.00061455,-0.00090405,0.00046444,0.00048769
 ,-0.00045852,-0.00010838,0.00059224,-0.00165648,-0.00006333,0.00007795
 ,0.00009635,0.00023014,-0.00002494,0.00004220,-0.00013647,-0.00003898,
 -0.00002455,-0.00005940,-0.00002615,-0.00000196,-0.00003260,0.00024744
 ,-0.00032580,0.00014539,-0.00005857,0.00012778,0.00004964,-0.00007402,
 0.00003265,-0.00013092,-0.00011241,0.00008655,-0.00003249,0.00004904,0
 .00000142,0.00008597,-0.00000412,-0.00000504,-0.00000129,-0.00003304,-
 0.00000686,0.00001891,-0.00024360,0.00101662,-0.00037990,-0.00000086,0
 .00002553,-0.00000893,-0.00012469,-0.00002790,0.00001244,0.01364505,0.
 00784957,-0.00470321,0.00001076,-0.00000662,-0.00001485,-0.00075453,0.
 00039533,-0.00014525,0.00311873,-0.00107807,0.00140503,-0.11212468,-0.
 11584524,0.03494424,-0.02632953,-0.01807447,0.00850365,0.11912014,0.13
 281449,-0.00018702,0.00000774,-0.00007837,-0.00035114,-0.00041045,-0.0
 0001613,0.00117409,0.00066109,0.00044129,-0.00043577,-0.00016241,0.000
 01864,0.00022962,0.00005111,0.00031400,0.00004914,0.00001892,-0.000204
 33,-0.00000400,-0.00004118,-0.00001726,0.00001179,0.00002464,-0.000041
 22,0.00000002,0.00000405,-0.00000563,0.00000662,-0.00000747,-0.0000100
 1,-0.00082744,0.00001620,-0.00068385,0.00013080,0.00050047,-0.00039139
 ,0.00006524,0.00037129,0.00075409,-0.00010624,0.00025889,0.00006864,0.
 00007262,-0.00010522,-0.00015520,0.00001811,-0.00005656,-0.00006690,-0
 .00001667,0.00000827,-0.00001389,0.00009218,-0.00011496,0.00015296,-0.
 00002497,0.00003979,-0.00001127,-0.00000930,-0.00000103,-0.00011147,0.
 00006675,0.00003498,-0.00003082,-0.00004336,-0.00005597,0.00000837,-0.
 00000637,-0.00000084,-0.00000016,-0.00001576,-0.00001634,0.00000321,0.
 00069395,-0.00029256,0.00011146,-0.00000544,-0.00002022,-0.00000482,0.
 00005824,-0.00003384,-0.00003890,-0.01290947,-0.00764313,0.00323844,0.
 00003163,0.00011554,0.00001501,0.00036233,-0.00077270,0.00058948,-0.00
 300979,0.00120589,-0.00037067,0.05685956,0.03487938,-0.06858314,-0.009
 28664,-0.00612636,0.00254139,-0.05981056,-0.03795641,0.06998501,-0.000
 04707,0.00000262,0.00001318,-0.00002644,0.00004532,0.00002345,0.000505
 79,0.00013124,0.00021157,-0.00014288,-0.00003300,-0.00003159,0.0000911
 5,0.00002699,0.00013870,0.00003309,0.00001173,-0.00008743,-0.00000946,
 -0.00003135,-0.00001631,-0.00000382,0.00001731,-0.00001331,-0.00000070
 ,-0.00000093,-0.00000284,-0.00000367,-0.00000460,-0.00000369,-0.000306
 51,-0.00090071,0.00000320,-0.00007356,0.00049053,-0.00008612,-0.000043
 42,0.00020208,0.00032266,-0.00016503,0.00018628,-0.00022685,-0.0000678
 2,0.00003793,-0.00005918,0.00008368,0.00001249,0.00003137,0.00010878,-
 0.00010356,0.00002003,0.00000507,0.00004263,-0.00001091,-0.00000923,0.
 00001023,0.00000826,0.00001027,-0.00000072,0.00001162,0.00002656,-0.00
 002781,0.00010729,-0.00010315,-0.00015774,0.00004461,-0.00000283,0.000
 04035,0.00001177,-0.00000231,-0.00001758,-0.00001162,0.00109131,-0.001
 13633,-0.00071727,0.00009124,-0.00007148,0.00015612,-0.00004189,-0.000
 01136,-0.00002881,0.00107845,0.00063732,-0.02937058,-0.00006618,0.0003
 4233,0.00063989,-0.00422175,0.00274340,-0.00253044,0.00105074,-0.00076
 406,0.00036077,-0.05219522,-0.00056645,0.02139810,-0.00069412,-0.00010
 366,0.00315941,-0.00172946,0.00159786,0.02772485,0.05485397,-0.0000305
 7,-0.00000432,0.00000885,-0.00021565,0.00000931,-0.00004065,0.00066348
 ,0.00010826,0.00009952,-0.00022461,-0.00003442,0.00000132,0.00012247,0
 .00003902,0.00015310,0.00004661,0.00000194,-0.00010454,-0.00001290,-0.
 00000905,-0.00000565,0.00000781,0.00000432,-0.00001340,-0.00000094,-0.
 00000127,-0.00000148,0.00000382,0.00000014,-0.00000465,-0.00019939,-0.
 00085121,-0.00007953,-0.00000887,0.00051221,-0.00019976,-0.00016396,0.
 00026915,0.00043825,0.00005040,0.00003271,-0.00002570,0.00001752,0.000
 02677,-0.00008278,-0.00006261,-0.00001782,-0.00001027,-0.00005792,0.00
 005637,-0.00002337,0.00004457,-0.00011762,0.00019321,-0.00002392,0.000
 03075,-0.00002684,0.00001756,-0.00002359,-0.00007192,-0.00002521,0.000
 04053,-0.00006323,0.00009975,0.00002334,-0.00008644,0.00000816,-0.0000
 2962,-0.00001428,-0.00000903,0.00000297,0.00000218,-0.00040821,0.00086
 450,0.00143017,-0.00008064,0.00001950,-0.00012788,-0.00002585,0.000004
 45,0.00000515,-0.00113260,-0.00102433,0.01547666,0.00038712,-0.0002716
 8,-0.00041941,0.00292870,-0.00098167,0.00107897,-0.00018157,0.00028161
 ,-0.00072920,-0.00046453,-0.04855618,-0.00855919,0.00312892,-0.0019526
 6,-0.03412788,-0.00076287,0.00038886,0.01693025,-0.00366651,0.05492948
 ,0.00002214,-0.00002370,-0.00001793,0.00016116,0.00009916,-0.00000865,
 -0.00051422,-0.00010139,-0.00000866,0.00023510,0.00005284,-0.00000321,
 -0.00011551,-0.00003613,-0.00015434,-0.00003740,-0.00000795,0.00008497
 ,0.00001248,0.00002614,0.00001084,-0.00000914,-0.00001039,0.00001786,-
 0.00000158,-0.00000082,0.00000180,0.00000219,0.00000469,0.00000408,0.0
 0014192,0.00048421,0.00029434,-0.00005660,-0.00043816,0.00012685,0.000
 12425,0.00005341,-0.00045430,-0.00009339,-0.00007939,-0.00012666,-0.00
 004688,0.00000343,0.00010723,0.00004229,0.00003541,0.00004126,0.000083
 61,-0.00005234,0.00002430,-0.00004777,0.00003312,-0.00021174,0.0000249
 5,-0.00000409,0.00004693,-0.00001323,0.00004710,0.00008942,-0.00005150
 ,0.00000951,0.00003306,-0.00003269,0.00005027,0.00045163,-0.00001367,0
 .00003446,0.00000262,0.00000969,0.00002813,0.00000037,0.00053021,-0.00
 074514,0.00040221,0.00017985,-0.00017545,0.00006888,-0.00000749,-0.000
 01473,-0.00004049,0.00055098,0.00029034,-0.01429912,-0.00032271,0.0009
 3348,0.00038007,-0.00259785,0.00086811,0.00030549,-0.00016677,-0.00022
 408,0.00049930,0.02099445,-0.00827070,-0.31138032,0.00094085,-0.000635
 46,-0.00792817,0.00085300,-0.00020043,-0.00821779,-0.02069598,0.009968
 82,0.33798033,-0.00003431,-0.00001648,-0.00002098,0.00000216,-0.000012
 75,0.00001166,-0.00007351,-0.00002916,-0.00001988,0.00001096,0.0000017
 2,0.00001489,0.00001529,0.00000250,0.00001572,0.00002507,-0.00000199,-
 0.00003372,-0.00000039,0.00000538,0.00000457,-0.00000236,0.00000010,-0
 .00000237,0.00000477,0.00000266,-0.00000064,0.00000715,0.00000428,0.00
 000012,0.00006930,0.00009219,0.00001513,0.00003230,0.00006884,-0.00001
 913,-0.00009969,-0.00004338,0.00006345,-0.00001004,0.00000493,0.000022
 94,-0.00000487,-0.00000086,0.00000360,0.00000967,0.00000657,0.00000163
 ,0.00001216,-0.00001210,0.00000967,0.00000471,-0.00010026,0.00001508,0
 .00000937,0.00008830,0.00003293,-0.00000551,0.00004806,-0.00004107,-0.
 00003593,-0.00000362,-0.00003117,0.00006478,0.00005759,0.00005646,0.00
 000684,-0.00000027,-0.00000025,0.00000542,0.00002155,0.00000407,0.0001
 1922,-0.00009484,-0.00041092,-0.00000706,-0.00000421,-0.00000285,0.000
 00849,-0.00000843,-0.00000743,0.00080674,0.00055442,0.00072737,-0.0000
 0783,0.00000169,0.00000902,-0.00005021,-0.00006042,-0.00011627,0.00052
 616,-0.00010349,0.00001519,-0.00081835,-0.00066764,0.00021542,-0.22923
 775,0.09443030,-0.09132809,0.00049145,0.00023311,0.00021103,-0.0000872
 9,0.00020787,0.00025939,0.24486155,0.00007914,0.00004116,0.00002111,-0
 .00006437,-0.00000360,-0.00000883,0.00012854,0.00001450,0.00005821,-0.
 00003081,0.00002402,-0.00001707,-0.00006054,-0.00000244,-0.00003547,-0
 .00007290,0.00001336,0.00008187,0.00000239,-0.00001747,-0.00001136,0.0
 0000493,-0.00001249,0.00001160,-0.00000874,-0.00001073,0.00000151,-0.0
 0001146,-0.00001254,0.00000027,-0.00015927,-0.00012147,-0.00002555,-0.
 00003210,-0.00002139,0.00003120,0.00027912,0.00037639,-0.00007294,0.00
 003324,-0.00002261,-0.00004398,0.00000624,0.00000885,0.00000148,-0.000
 02123,-0.00000939,-0.00000253,-0.00002356,0.00002230,-0.00003024,0.000
 17545,0.00008427,-0.00003800,-0.00006175,-0.00010554,-0.00003151,-0.00
 004431,-0.00005212,0.00005905,0.00023083,-0.00003882,0.00013967,-0.000
 20048,-0.00062752,-0.00035403,-0.00002021,-0.00000089,0.00000092,-0.00
 002804,-0.00012050,-0.00002589,0.00190284,-0.00025653,0.00113002,-0.00
 000100,0.00000908,0.00002074,-0.00001165,0.00001247,-0.00001732,-0.001
 38085,-0.00605366,-0.00344541,0.00000993,0.00002954,-0.00002014,-0.000
 32533,0.00009584,-0.00001460,0.00008501,0.00012953,-0.00024042,0.02640
 615,-0.01250329,0.01468169,0.09385129,-0.09786109,0.04823603,-0.000457
 16,0.00097241,0.00066266,-0.00011575,0.00128105,-0.00022940,-0.1035842
 8,0.10647839,-0.00000990,0.00000058,0.00000847,-0.00002640,-0.00000401
 ,0.00001980,-0.00006573,-0.00001550,-0.00000021,0.00000892,-0.00001452
 ,-0.00001042,0.00001362,-0.00000290,0.00001126,0.00001219,-0.00000212,
 -0.00001002,-0.00000152,-0.00000450,-0.00000193,-0.00000631,0.00000717
 ,-0.00000563,0.00000440,0.00000632,-0.00000258,0.00000041,0.00000255,0
 .00000133,0.00002490,0.00003193,0.00001638,0.00000813,0.00004903,-0.00
 000685,0.00008625,-0.00001431,-0.00001602,0.00000843,-0.00002821,-0.00
 005494,-0.00004301,-0.00001615,0.00002928,-0.00000061,0.00001488,0.000
 01493,0.00001791,-0.00002000,-0.00000826,0.00000421,0.00000704,-0.0000
 1242,-0.00000234,-0.00000659,-0.00000254,-0.00000090,0.00000244,0.0000
 2018,0.00005686,-0.00002234,0.00002856,-0.00000721,-0.00017996,-0.0000
 9220,0.00000063,-0.00000291,-0.00000203,-0.00000076,-0.00002192,-0.000
 01052,0.00034820,-0.00042465,0.00070005,-0.00000999,-0.00000526,0.0000
 0418,-0.00000051,0.00000656,-0.00000416,-0.00001119,-0.00192029,-0.000
 53791,-0.00000606,0.00011743,0.00001920,0.00017123,-0.00028911,0.00043
 866,-0.00026335,-0.00001751,-0.00017480,0.01054926,-0.00467356,0.00429
 509,-0.09150431,0.04865764,-0.09592163,-0.00023062,0.00063795,0.000135
 01,0.00030757,0.00057693,0.00035079,0.09998236,-0.05125738,0.09950620,
 0.00002804,0.00000706,0.00000294,-0.00003416,-0.00000691,-0.00000743,-
 0.00000756,-0.00002280,-0.00000922,0.00000868,0.00002650,-0.00000105,-
 0.00003411,-0.00000090,-0.00002984,-0.00002201,0.00000096,0.00003391,0
 .00000053,0.00000184,0.00000021,0.00000397,-0.00001695,0.00001196,-0.0
 0000394,-0.00000588,0.00000111,-0.00000114,-0.00000179,0.00000060,-0.0
 0001872,0.00005504,-0.00000081,0.00000047,-0.00001715,0.00002188,0.000
 07275,0.00002440,-0.00005668,0.00005085,-0.00004856,0.00000351,0.00002
 924,0.00001643,0.00001573,-0.00002192,-0.00000119,-0.00000227,-0.00002
 987,0.00004083,0.00000470,0.00005184,-0.00001778,0.00000883,-0.0000180
 5,-0.00000824,-0.00000347,-0.00002193,-0.00000390,-0.00000640,0.000005
 13,0.00001597,-0.00000543,-0.00003017,-0.00000862,-0.00000520,-0.00000
 519,-0.00000648,0.00000013,-0.00000804,-0.00001238,0.00000319,-0.00003
 480,0.00005887,-0.00010096,0.00000038,0.00001959,-0.00001316,-0.000004
 89,-0.00000015,0.00000759,0.00016974,-0.00027727,0.00107832,-0.0000190
 9,-0.00004488,-0.00007989,0.00008326,0.00034408,-0.00021542,-0.0000321
 6,-0.00007033,0.00010917,-0.00109201,0.00003157,0.00215777,-0.05256571
 ,0.00082155,0.02480036,0.00003545,0.00008531,-0.00058696,0.00081705,0.
 00052308,0.00001143,0.00375244,-0.00213273,-0.02782653,0.05066951,0.00
 002284,-0.00000115,-0.00000288,0.00006179,0.00003055,0.00000283,-0.000
 18202,-0.00003541,-0.00000712,0.00010771,0.00003398,-0.00000826,-0.000
 06299,-0.00001540,-0.00006934,-0.00002191,-0.00000089,0.00004571,0.000
 00482,0.00000692,0.00000291,-0.00000740,-0.00001142,0.00001415,-0.0000
 0052,-0.00000128,0.00000043,0.00000014,-0.00000007,0.00000315,0.000065
 69,0.00015207,0.00012172,-0.00003278,-0.00018697,0.00006724,0.00005608
 ,-0.00001839,-0.00012570,0.00003793,-0.00013244,-0.00017038,-0.0000654
 2,0.00003623,0.00011756,-0.00001130,0.00003971,0.00005009,0.00001965,-
 0.00000857,0.00001270,-0.00001797,0.00004197,-0.00009886,0.00000543,0.
 00000164,0.00002277,-0.00001522,0.00002424,0.00004515,-0.00002008,0.00
 000307,0.00000199,-0.00000215,0.00000729,0.00012974,-0.00000459,0.0000
 0297,-0.00000030,0.00000436,0.00000838,-0.00000162,-0.00017291,-0.0000
 6187,0.00005025,0.00004206,-0.00002737,0.00001740,-0.00000128,0.000000
 12,-0.00000101,-0.00089758,0.00168917,-0.00129777,-0.00007067,0.000145
 01,0.00020668,0.00033922,-0.00022962,0.00085014,0.00010178,-0.00003550
 ,0.00015524,0.00378073,-0.00156306,-0.03446462,0.00079552,-0.04884838,
 -0.01066687,-0.00038625,0.00147124,0.00047766,0.00094881,-0.00645474,-
 0.00168304,-0.00284499,-0.00000551,0.01409819,-0.00155607,0.05356370,0
 .00004418,-0.00000073,0.00000310,0.00004021,0.00003583,-0.00000579,-0.
 00007340,-0.00001505,0.00000998,0.00008625,0.00003887,-0.00001664,-0.0
 0006524,-0.00001272,-0.00007369,-0.00003142,-0.00000240,0.00006236,0.0
 0000425,0.00001209,0.00000309,-0.00000253,-0.00001688,0.00001820,-0.00
 000679,-0.00000564,0.00000135,-0.00000177,-0.00000008,0.00000160,0.000
 03927,0.00000797,0.00011814,-0.00003451,-0.00017532,0.00008371,0.00006
 191,0.00004673,-0.00010895,0.00000417,-0.00010851,-0.00015844,-0.00002
 921,-0.00006005,0.00008217,-0.00000922,0.00002172,0.00003421,0.0000103
 3,-0.00001539,-0.00000354,-0.00001310,0.00008528,-0.00010900,0.0000007
 9,-0.00004005,0.00001331,-0.00000295,-0.00001224,0.00007930,0.00002545
 ,-0.00001816,0.00002669,-0.00001850,-0.00008397,-0.00001875,-0.0000051
 8,0.00000346,0.00000046,0.00000089,-0.00001454,-0.00000674,0.00001114,
 -0.00003834,0.00047466,0.00001110,-0.00001972,0.00001182,-0.00001016,0
 .00000466,-0.00000814,-0.00029033,0.00075121,0.00050946,-0.00009771,0.
 00025685,0.00003782,0.00068700,-0.00057224,0.00042732,-0.00000410,-0.0
 0011344,-0.00006734,0.00052994,-0.00066618,-0.00962367,0.02468483,-0.0
 1070637,-0.31554565,-0.00024293,-0.00019676,0.00044467,-0.00017500,-0.
 00205719,0.00116470,0.00193374,-0.00042445,-0.01234926,-0.02717384,0.0
 1422214,0.34205826,-0.00000202,-0.00000443,0.00001606,0.00001098,-0.00
 000600,-0.00000049,0.00002007,0.00001180,-0.00000045,-0.00000837,-0.00
 002540,-0.00000966,0.00002235,-0.00000203,0.00000651,0.00001166,-0.000
 00638,-0.00000544,-0.00000085,0.00000554,0.00000020,0.,0.00001241,-0.0
 0000580,-0.00000282,0.00000493,0.00000082,-0.00000425,0.00000301,-0.00
 000155,-0.00001651,-0.00000311,-0.00000347,-0.00003266,-0.00004304,-0.
 00001324,-0.00004382,0.00020706,-0.00001639,-0.00001566,0.00003127,0.0
 0001068,0.00000328,-0.00000182,-0.00002246,-0.00000283,-0.00001024,-0.
 00000623,-0.00000195,0.00000258,-0.00000987,-0.00001747,0.00010034,-0.
 00000286,0.00000662,-0.00007199,-0.00003321,0.00002451,-0.00004550,0.0
 0003532,0.00004531,-0.00003233,0.00002711,-0.00004069,-0.00008215,-0.0
 0003645,-0.00000319,0.00000101,-0.00000012,0.00000385,-0.00001449,-0.0
 0000612,0.00026122,0.00004458,0.00002391,-0.00000231,0.00000188,0.0000
 0263,-0.00000393,0.00000177,-0.00000233,0.00124634,0.00064453,-0.00016
 136,-0.00001001,-0.00002150,-0.00001087,-0.00005113,-0.00004806,-0.000
 06902,0.00026398,-0.00042676,0.00031131,0.00276722,0.00210237,-0.00190
 341,-0.22538094,-0.11425766,0.05848441,0.00114446,0.00121605,-0.000221
 66,0.00019668,-0.00049950,-0.00035556,-0.02037090,-0.01434659,0.008411
 76,-0.00177386,-0.00002046,0.00011245,0.24175763,0.00001050,-0.0000053
 7,0.00000855,0.00022907,0.00007030,-0.00005696,0.00022006,0.00014044,0
 .00002670,0.00002483,-0.00000667,-0.00000796,-0.00000219,-0.00000271,-
 0.00000738,-0.00000547,-0.00000335,-0.00000451,-0.00000153,0.00000493,
 -0.00000087,-0.00000134,0.00000478,0.00000220,-0.00000746,-0.00000189,
 0.00000184,-0.00000667,-0.00000107,-0.00000092,-0.00000791,-0.00029536
 ,0.00002844,-0.00007642,-0.00025561,-0.00001449,-0.00023243,0.00013470
 ,0.00018192,-0.00007170,0.00001803,-0.00011982,-0.00000623,0.00001281,
 -0.00000999,0.00001142,-0.00000132,0.00002150,0.00001742,-0.00000946,0
 .00000780,-0.00016438,0.00026608,-0.00003708,0.00004707,-0.00004486,-0
 .00001152,0.00006064,-0.00004291,0.00002925,0.00002510,-0.00007324,0.0
 0001086,0.00002596,-0.00000333,-0.00000435,0.00000602,0.00000374,-0.00
 000201,0.00002339,0.00001740,-0.00000729,0.00021094,0.00027349,-0.0002
 7549,-0.00000708,-0.00000655,0.00000228,0.00004849,-0.00001215,-0.0000
 0195,-0.00211926,0.00122505,0.00021391,-0.00004375,-0.00001223,-0.0000
 1425,0.00011204,-0.00002671,0.00000688,0.00131322,-0.00012321,0.000096
 37,-0.02675141,-0.01810777,0.00952240,-0.11415682,-0.12283903,0.038700
 89,0.00156650,-0.00571114,-0.00245117,0.00018613,0.00140295,-0.0000898
 3,0.01175709,0.00826643,-0.00527294,0.00218786,0.00037975,-0.00011040,
 0.12557830,0.13536502,0.00003158,0.00000770,0.00001148,0.00002415,0.00
 001574,-0.00000774,0.00001534,0.00001098,-0.00000327,0.00003470,0.0000
 2048,-0.00001235,-0.00003181,-0.00000438,-0.00003180,-0.00001929,-0.00
 000052,0.00003122,-0.00000099,0.00000036,-0.00000104,-0.00000197,-0.00
 001191,0.00001014,-0.00000259,-0.00000350,-0.00000021,-0.00000221,-0.0
 0000137,0.00000181,0.00000553,-0.00006783,0.00004351,-0.00001891,-0.00
 008396,0.00001601,0.00002294,-0.00002898,-0.00002698,0.00002744,-0.000
 07448,-0.00011810,-0.00001775,-0.00000369,0.00004861,-0.00001158,0.000
 01885,0.00002351,0.00000006,0.00000627,0.00000838,-0.00001875,0.000056
 98,-0.00002080,-0.00000082,-0.00001682,-0.00000329,-0.00000353,-0.0000
 0592,0.00001831,-0.00001439,-0.00000284,0.00000393,0.00001333,0.000029
 36,-0.00000838,-0.00000010,-0.00000400,-0.00000142,0.00000142,0.000000
 84,0.00000039,-0.00020142,0.00006263,-0.00003628,0.00000477,0.00000930
 ,-0.00000580,-0.00000676,0.00000359,0.00001708,-0.00002172,0.00051925,
 -0.00010284,-0.00000173,-0.00002517,-0.00003352,0.00015632,0.00003814,
 -0.00001864,0.00003106,0.00032101,0.00018357,-0.00994172,-0.00635131,0
 .00289915,0.05856952,0.03886027,-0.06979448,0.00029094,-0.00253675,0.0
 0023153,-0.00062649,0.00051185,0.00036203,-0.01159066,-0.00879150,0.00
 362495,0.02785123,0.01788191,-0.00757081,-0.06454516,-0.04036062,0.070
 26213\\0.,-0.00000045,0.00000024,0.00000116,-0.00000014,-0.00000055,0.
 00000200,-0.00000080,0.00000100,0.00000044,-0.00000050,0.00000040,0.,-
 0.00000060,0.00000004,0.00000011,-0.00000044,0.00000041,-0.00000004,-0
 .00000031,0.00000014,0.00000036,-0.00000035,0.00000023,0.00000033,-0.0
 0000056,0.00000032,0.00000014,-0.00000064,0.00000024,-0.00000240,0.000
 00128,-0.00000149,-0.00000039,-0.00000085,0.00000050,-0.00000100,-0.00
 000112,0.00000150,0.00000447,-0.00000223,-0.00000382,0.00000003,-0.000
 00053,0.00000063,-0.00000086,-0.00000054,0.00000135,-0.00000024,0.0000
 0059,-0.00000019,0.00000063,0.00000211,-0.00000073,-0.00000026,0.00000
 301,0.00000122,-0.00000285,0.00000023,-0.00000048,0.00000107,-0.000002
 58,0.00000175,0.00000131,0.00000286,-0.00000098,-0.00000005,0.00000004
 ,0.,0.00000061,0.00000065,-0.00000024,-0.00000045,0.00000020,-0.000000
 08,0.00000102,0.00000085,-0.00000099,-0.00000041,0.00000071,-0.0000009
 6,-0.00000003,-0.00000057,-0.00000004,-0.00000026,0.00000035,0.,-0.000
 00050,0.00000008,0.00000052,-0.00000029,0.00000012,-0.00000005,-0.0000
 0055,0.00000012,0.00000006,-0.00000039,-0.00000016,0.00000012,-0.00000
 062,-0.00000009,-0.00000011,-0.00000032,0.00000007,0.00000005,-0.00000
 063,0.00000001,0.00000004,-0.00000047,0.00000004,-0.00000001,-0.000000
 65,0.00000012,-0.00000003\\\@
 The archive entry for this job was punched.



 IN THIS SHORT LIFE

 THAT ONLY LASTS AN HOUR

 HOW MUCH, HOW LITTLE, IS WITHIN OUR POWER....


 EMILY DICKINSON BOLTS OF MELODY NO. 521
 Job cpu time:       0 days  3 hours 56 minutes 14.5 seconds.
 Elapsed time:       0 days  0 hours  2 minutes 39.1 seconds.
 File lengths (MBytes):  RWF=    908 Int=      0 D2E=      0 Chk=     14 Scr=      1
 Normal termination of Gaussian 16 at Fri Nov 21 16:03:02 2025.
