 Entering Gaussian System, Link 0=g16
 Initial command:
 /public/software/g16/l1.exe "/tmp/Gau-43314.inp" -scrdir="/tmp/"
 Entering Link 1 = /public/software/g16/l1.exe PID=     43317.
  
 Copyright (c) 1988-2021, Gaussian, Inc.  All Rights Reserved.
  
 This is part of the Gaussian(R) 16 program.  It is based on
 the Gaussian(R) 09 system (copyright 2009, Gaussian, Inc.),
 the Gaussian(R) 03 system (copyright 2003, Gaussian, Inc.),
 the Gaussian(R) 98 system (copyright 1998, Gaussian, Inc.),
 the Gaussian(R) 94 system (copyright 1995, Gaussian, Inc.),
 the Gaussian 92(TM) system (copyright 1992, Gaussian, Inc.),
 the Gaussian 90(TM) system (copyright 1990, Gaussian, Inc.),
 the Gaussian 88(TM) system (copyright 1988, Gaussian, Inc.),
 the Gaussian 86(TM) system (copyright 1986, Carnegie Mellon
 University), and the Gaussian 82(TM) system (copyright 1983,
 Carnegie Mellon University). Gaussian is a federally registered
 trademark of Gaussian, Inc.
  
 This software contains proprietary and confidential information,
 including trade secrets, belonging to Gaussian, Inc.
  
 This software is provided under written license and may be
 used, copied, transmitted, or stored only in accord with that
 written license.
  
 The following legend is applicable only to US Government
 contracts under FAR:
  
                    RESTRICTED RIGHTS LEGEND
  
 Use, reproduction and disclosure by the US Government is
 subject to restrictions as set forth in subparagraphs (a)
 and (c) of the Commercial Computer Software - Restricted
 Rights clause in FAR 52.227-19.
  
 Gaussian, Inc.
 340 Quinnipiac St., Bldg. 40, Wallingford CT 06492
  
  
 ---------------------------------------------------------------
 Warning -- This program may not be used in any manner that
 competes with the business of Gaussian, Inc. or will provide
 assistance to any competitor of Gaussian, Inc.  The licensee
 of this program is prohibited from giving any competitor of
 Gaussian, Inc. access to this program.  By using this program,
 the user acknowledges that Gaussian, Inc. is engaged in the
 business of creating and licensing software in the field of
 computational chemistry and represents and warrants to the
 licensee that it is not a competitor of Gaussian, Inc. and that
 it will not use this program in any manner prohibited above.
 ---------------------------------------------------------------
  

 Cite this work as:
 Gaussian 16, Revision C.02,
 M. J. Frisch, G. W. Trucks, H. B. Schlegel, G. E. Scuseria, 
 M. A. Robb, J. R. Cheeseman, G. Scalmani, V. Barone, 
 G. A. Petersson, H. Nakatsuji, X. Li, M. Caricato, A. V. Marenich, 
 J. Bloino, B. G. Janesko, R. Gomperts, B. Mennucci, H. P. Hratchian, 
 J. V. Ortiz, A. F. Izmaylov, J. L. Sonnenberg, D. Williams-Young, 
 F. Ding, F. Lipparini, F. Egidi, J. Goings, B. Peng, A. Petrone, 
 T. Henderson, D. Ranasinghe, V. G. Zakrzewski, J. Gao, N. Rega, 
 G. Zheng, W. Liang, M. Hada, M. Ehara, K. Toyota, R. Fukuda, 
 J. Hasegawa, M. Ishida, T. Nakajima, Y. Honda, O. Kitao, H. Nakai, 
 T. Vreven, K. Throssell, J. A. Montgomery, Jr., J. E. Peralta, 
 F. Ogliaro, M. J. Bearpark, J. J. Heyd, E. N. Brothers, K. N. Kudin, 
 V. N. Staroverov, T. A. Keith, R. Kobayashi, J. Normand, 
 K. Raghavachari, A. P. Rendell, J. C. Burant, S. S. Iyengar, 
 J. Tomasi, M. Cossi, J. M. Millam, M. Klene, C. Adamo, R. Cammi, 
 J. W. Ochterski, R. L. Martin, K. Morokuma, O. Farkas, 
 J. B. Foresman, and D. J. Fox, Gaussian, Inc., Wallingford CT, 2019.
 
 ******************************************
 Gaussian 16:  ES64L-G16RevC.02  7-Dec-2021
                21-Nov-2025 
 ******************************************
 %nprocshared=96
 Will use up to   96 processors via shared memory.
 %mem=50GB
 %chk=TS3.chk
 -------------------------------------------------------
 # opt=(calcfc,ts,noeigen,maxstep=3) freq 6-31g(d) m062x
 -------------------------------------------------------
 1/5=1,8=3,10=4,11=1,18=20,26=3,38=1/1,3;
 2/9=110,12=2,17=6,18=5,40=1/2;
 3/5=1,6=6,7=1,11=2,25=1,30=1,71=2,74=-55,140=1/1,2,3;
 4//1;
 5/5=2,38=5/2;
 8/6=4,10=90,11=11/1;
 11/6=1,8=1,9=11,15=111,16=1/1,2,10;
 10/6=1,13=1/2;
 6/7=2,8=2,9=2,10=2,28=1/1;
 7/10=1,25=1/1,2,3,16;
 1/5=1,8=3,10=4,11=1,18=20,26=3/3(2);
 2/9=110/2;
 99//99;
 2/9=110/2;
 3/5=1,6=6,7=1,11=2,25=1,30=1,71=1,74=-55/1,2,3;
 4/5=5,16=3,69=1/1;
 5/5=2,38=5/2;
 7//1,2,3,16;
 1/5=1,8=3,11=1,18=20,26=3/3(-5);
 2/9=110/2;
 6/7=2,8=2,9=2,10=2,19=2,28=1/1;
 99/9=1/99;
 -------------------
 Title Card Required
 -------------------
 Symbolic Z-matrix:
 Charge =  0 Multiplicity = 2
 C                    -4.89867  -2.4006   -0.11836 
 C                    -4.02777  -1.34203  -0.41759 
 C                    -2.98971  -1.52277  -1.35456 
 C                    -2.77848  -2.73633  -2.02041 
 C                    -3.65057  -3.76564  -1.7095 
 C                    -4.69556  -3.60194  -0.77232 
 H                    -5.6971   -2.26805   0.60396 
 H                    -1.97431  -2.86778  -2.73708 
 H                    -3.52753  -4.72676  -2.1977 
 H                    -5.34895  -4.44247  -0.56371 
 N                    -3.9881   -0.05874   0.09347 
 N                    -2.32389  -0.3161   -1.40976 
 C                    -1.18159  -0.01695  -2.26633 
 H                    -1.31878  -0.53622  -3.2159 
 H                    -1.13231   1.05514  -2.45236 
 H                    -0.24738  -0.34117  -1.8003 
 C                    -2.9747    0.48927  -0.51653 
 S                    -2.51227   2.19205  -0.22898 
 O                    -3.40899   2.71878   0.79561 
 O                    -2.46304   2.84612  -1.54161 
 C                    -0.84591   2.10257   0.42509 
 C                    -0.21863   3.50236   0.38394 
 H                    -0.27519   1.411    -0.20276 
 H                    -0.9356    1.70755   1.4415 
 C                     1.21795   3.45317   0.79593 
 H                    -0.3014    3.91058  -0.6278 
 H                    -0.77859   4.16196   1.06055 
 C                     2.2288    3.95929   0.01273 
 H                     1.45902   2.93651   1.72388 
 H                     3.23609   4.0437    0.41394 
 H                     1.98349   4.63977  -0.80086 
 S                     2.71249   2.22289  -1.45553 
 C                     3.52012   1.09479  -0.29819 
 O                     1.3951    1.63315  -1.7896 
 O                     3.63912   2.52845  -2.56575 
 C                     3.45038  -0.36874  -0.73441 
 H                     2.97605   1.24847   0.63982 
 H                     4.54357   1.45763  -0.1785 
 H                     4.3057   -0.61423  -1.36939 
 C                     3.4255   -1.29034   0.50783 
 H                     2.54279  -0.53574  -1.32629 
 C                     2.14386  -1.05425   1.25803 
 C                     3.72408  -2.75791   0.1525 
 H                     4.20757  -0.94867   1.19701 
 N                     2.07062  -0.23899   2.28825 
 N                     0.91765  -1.5498    0.87844 
 C                     0.60552  -2.51554  -0.16312 
 H                     1.1518   -2.28327  -1.07843 
 H                     0.84641  -3.53276   0.15446 
 H                    -0.46394  -2.45631  -0.37617 
 H                     3.32054  -3.41608   0.9326 
 H                     3.22377  -3.03389  -0.78384 
 C                     5.22379  -3.02214   0.00945 
 C                    -0.01043  -1.01264   1.75036 
 C                     0.72945  -0.18841   2.62043 
 H                     5.6548   -2.32939  -0.72391 
 H                     5.71563  -2.80802   0.96608 
 C                     5.51417  -4.4597   -0.41299 
 C                    -1.39677  -1.14316   1.84248 
 C                     0.07507   0.54187   3.62004 
 H                     5.06     -4.68007  -1.38464 
 H                     6.58948  -4.64037  -0.49467 
 H                     5.10681  -5.16904   0.31505 
 C                    -2.0307   -0.40055   2.831 
 H                    -1.96389  -1.79162   1.18008 
 C                    -1.30594   0.42844   3.71034 
 H                     0.63938   1.18038   4.29258 
 H                    -3.11085  -0.45874   2.9188 
 H                    -1.84174   0.98933   4.46921 
 
 Add virtual bond connecting atoms S32        and C28        Dist= 4.39D+00.
 Add virtual bond connecting atoms O34        and H23        Dist= 4.37D+00.

 GradGradGradGradGradGradGradGradGradGradGradGradGradGradGradGradGradGrad
 Berny optimization.
 Initialization pass.
                           ----------------------------
                           !    Initial Parameters    !
                           ! (Angstroms and Degrees)  !
 --------------------------                            --------------------------
 ! Name  Definition              Value          Derivative Info.                !
 --------------------------------------------------------------------------------
 ! R1    R(1,2)                  1.4031         calculate D2E/DX2 analytically  !
 ! R2    R(1,6)                  1.3828         calculate D2E/DX2 analytically  !
 ! R3    R(1,7)                  1.0848         calculate D2E/DX2 analytically  !
 ! R4    R(2,3)                  1.41           calculate D2E/DX2 analytically  !
 ! R5    R(2,11)                 1.3819         calculate D2E/DX2 analytically  !
 ! R6    R(3,4)                  1.4003         calculate D2E/DX2 analytically  !
 ! R7    R(3,12)                 1.3793         calculate D2E/DX2 analytically  !
 ! R8    R(4,5)                  1.3844         calculate D2E/DX2 analytically  !
 ! R9    R(4,8)                  1.0852         calculate D2E/DX2 analytically  !
 ! R10   R(5,6)                  1.4132         calculate D2E/DX2 analytically  !
 ! R11   R(5,9)                  1.085          calculate D2E/DX2 analytically  !
 ! R12   R(6,10)                 1.0849         calculate D2E/DX2 analytically  !
 ! R13   R(11,17)                1.3036         calculate D2E/DX2 analytically  !
 ! R14   R(12,13)                1.4588         calculate D2E/DX2 analytically  !
 ! R15   R(12,17)                1.3675         calculate D2E/DX2 analytically  !
 ! R16   R(13,14)                1.0909         calculate D2E/DX2 analytically  !
 ! R17   R(13,15)                1.0892         calculate D2E/DX2 analytically  !
 ! R18   R(13,16)                1.0932         calculate D2E/DX2 analytically  !
 ! R19   R(17,18)                1.7877         calculate D2E/DX2 analytically  !
 ! R20   R(18,19)                1.4599         calculate D2E/DX2 analytically  !
 ! R21   R(18,20)                1.4674         calculate D2E/DX2 analytically  !
 ! R22   R(18,21)                1.7924         calculate D2E/DX2 analytically  !
 ! R23   R(21,22)                1.5345         calculate D2E/DX2 analytically  !
 ! R24   R(21,23)                1.0946         calculate D2E/DX2 analytically  !
 ! R25   R(21,24)                1.0942         calculate D2E/DX2 analytically  !
 ! R26   R(22,25)                1.4953         calculate D2E/DX2 analytically  !
 ! R27   R(22,26)                1.0941         calculate D2E/DX2 analytically  !
 ! R28   R(22,27)                1.0984         calculate D2E/DX2 analytically  !
 ! R29   R(23,34)                2.3146         calculate D2E/DX2 analytically  !
 ! R30   R(25,28)                1.3753         calculate D2E/DX2 analytically  !
 ! R31   R(25,29)                1.0891         calculate D2E/DX2 analytically  !
 ! R32   R(28,30)                1.0875         calculate D2E/DX2 analytically  !
 ! R33   R(28,31)                1.0886         calculate D2E/DX2 analytically  !
 ! R34   R(28,32)                2.3248         calculate D2E/DX2 analytically  !
 ! R35   R(32,33)                1.8067         calculate D2E/DX2 analytically  !
 ! R36   R(32,34)                1.4815         calculate D2E/DX2 analytically  !
 ! R37   R(32,35)                1.478          calculate D2E/DX2 analytically  !
 ! R38   R(33,36)                1.5287         calculate D2E/DX2 analytically  !
 ! R39   R(33,37)                1.0952         calculate D2E/DX2 analytically  !
 ! R40   R(33,38)                1.0924         calculate D2E/DX2 analytically  !
 ! R41   R(36,39)                1.0932         calculate D2E/DX2 analytically  !
 ! R42   R(36,40)                1.547          calculate D2E/DX2 analytically  !
 ! R43   R(36,41)                1.0963         calculate D2E/DX2 analytically  !
 ! R44   R(40,42)                1.5037         calculate D2E/DX2 analytically  !
 ! R45   R(40,43)                1.5392         calculate D2E/DX2 analytically  !
 ! R46   R(40,44)                1.097          calculate D2E/DX2 analytically  !
 ! R47   R(42,45)                1.3158         calculate D2E/DX2 analytically  !
 ! R48   R(42,46)                1.3759         calculate D2E/DX2 analytically  !
 ! R49   R(43,51)                1.0975         calculate D2E/DX2 analytically  !
 ! R50   R(43,52)                1.0969         calculate D2E/DX2 analytically  !
 ! R51   R(43,53)                1.5295         calculate D2E/DX2 analytically  !
 ! R52   R(45,55)                1.3826         calculate D2E/DX2 analytically  !
 ! R53   R(46,47)                1.4543         calculate D2E/DX2 analytically  !
 ! R54   R(46,54)                1.3821         calculate D2E/DX2 analytically  !
 ! R55   R(47,48)                1.091          calculate D2E/DX2 analytically  !
 ! R56   R(47,49)                1.0925         calculate D2E/DX2 analytically  !
 ! R57   R(47,50)                1.0921         calculate D2E/DX2 analytically  !
 ! R58   R(53,56)                1.097          calculate D2E/DX2 analytically  !
 ! R59   R(53,57)                1.0968         calculate D2E/DX2 analytically  !
 ! R60   R(53,58)                1.5262         calculate D2E/DX2 analytically  !
 ! R61   R(54,55)                1.4085         calculate D2E/DX2 analytically  !
 ! R62   R(54,59)                1.3955         calculate D2E/DX2 analytically  !
 ! R63   R(55,60)                1.4003         calculate D2E/DX2 analytically  !
 ! R64   R(58,61)                1.095          calculate D2E/DX2 analytically  !
 ! R65   R(58,62)                1.0934         calculate D2E/DX2 analytically  !
 ! R66   R(58,63)                1.0951         calculate D2E/DX2 analytically  !
 ! R67   R(59,64)                1.3894         calculate D2E/DX2 analytically  !
 ! R68   R(59,65)                1.0867         calculate D2E/DX2 analytically  !
 ! R69   R(60,66)                1.3886         calculate D2E/DX2 analytically  !
 ! R70   R(60,67)                1.0856         calculate D2E/DX2 analytically  !
 ! R71   R(64,66)                1.4092         calculate D2E/DX2 analytically  !
 ! R72   R(64,68)                1.0853         calculate D2E/DX2 analytically  !
 ! R73   R(66,69)                1.0852         calculate D2E/DX2 analytically  !
 ! A1    A(2,1,6)              117.6093         calculate D2E/DX2 analytically  !
 ! A2    A(2,1,7)              120.4422         calculate D2E/DX2 analytically  !
 ! A3    A(6,1,7)              121.9484         calculate D2E/DX2 analytically  !
 ! A4    A(1,2,3)              120.131          calculate D2E/DX2 analytically  !
 ! A5    A(1,2,11)             129.7615         calculate D2E/DX2 analytically  !
 ! A6    A(3,2,11)             110.1            calculate D2E/DX2 analytically  !
 ! A7    A(2,3,4)              122.5573         calculate D2E/DX2 analytically  !
 ! A8    A(2,3,12)             105.6548         calculate D2E/DX2 analytically  !
 ! A9    A(4,3,12)             131.7866         calculate D2E/DX2 analytically  !
 ! A10   A(3,4,5)              116.2661         calculate D2E/DX2 analytically  !
 ! A11   A(3,4,8)              122.0613         calculate D2E/DX2 analytically  !
 ! A12   A(5,4,8)              121.672          calculate D2E/DX2 analytically  !
 ! A13   A(4,5,6)              121.9111         calculate D2E/DX2 analytically  !
 ! A14   A(4,5,9)              119.0855         calculate D2E/DX2 analytically  !
 ! A15   A(6,5,9)              119.0033         calculate D2E/DX2 analytically  !
 ! A16   A(1,6,5)              121.5253         calculate D2E/DX2 analytically  !
 ! A17   A(1,6,10)             119.5846         calculate D2E/DX2 analytically  !
 ! A18   A(5,6,10)             118.89           calculate D2E/DX2 analytically  !
 ! A19   A(2,11,17)            103.866          calculate D2E/DX2 analytically  !
 ! A20   A(3,12,13)            125.5142         calculate D2E/DX2 analytically  !
 ! A21   A(3,12,17)            105.0319         calculate D2E/DX2 analytically  !
 ! A22   A(13,12,17)           129.4521         calculate D2E/DX2 analytically  !
 ! A23   A(12,13,14)           108.3616         calculate D2E/DX2 analytically  !
 ! A24   A(12,13,15)           109.7276         calculate D2E/DX2 analytically  !
 ! A25   A(12,13,16)           110.9798         calculate D2E/DX2 analytically  !
 ! A26   A(14,13,15)           108.9976         calculate D2E/DX2 analytically  !
 ! A27   A(14,13,16)           109.7161         calculate D2E/DX2 analytically  !
 ! A28   A(15,13,16)           109.0301         calculate D2E/DX2 analytically  !
 ! A29   A(11,17,12)           115.3427         calculate D2E/DX2 analytically  !
 ! A30   A(11,17,18)           121.7508         calculate D2E/DX2 analytically  !
 ! A31   A(12,17,18)           122.8822         calculate D2E/DX2 analytically  !
 ! A32   A(17,18,19)           107.3168         calculate D2E/DX2 analytically  !
 ! A33   A(17,18,20)           106.819          calculate D2E/DX2 analytically  !
 ! A34   A(17,18,21)           104.5744         calculate D2E/DX2 analytically  !
 ! A35   A(19,18,20)           119.1816         calculate D2E/DX2 analytically  !
 ! A36   A(19,18,21)           109.4485         calculate D2E/DX2 analytically  !
 ! A37   A(20,18,21)           108.5114         calculate D2E/DX2 analytically  !
 ! A38   A(18,21,22)           108.9494         calculate D2E/DX2 analytically  !
 ! A39   A(18,21,23)           107.8766         calculate D2E/DX2 analytically  !
 ! A40   A(18,21,24)           106.3082         calculate D2E/DX2 analytically  !
 ! A41   A(22,21,23)           110.3538         calculate D2E/DX2 analytically  !
 ! A42   A(22,21,24)           112.8153         calculate D2E/DX2 analytically  !
 ! A43   A(23,21,24)           110.3324         calculate D2E/DX2 analytically  !
 ! A44   A(21,22,25)           110.8146         calculate D2E/DX2 analytically  !
 ! A45   A(21,22,26)           109.5257         calculate D2E/DX2 analytically  !
 ! A46   A(21,22,27)           108.8373         calculate D2E/DX2 analytically  !
 ! A47   A(25,22,26)           109.8606         calculate D2E/DX2 analytically  !
 ! A48   A(25,22,27)           109.8657         calculate D2E/DX2 analytically  !
 ! A49   A(26,22,27)           107.879          calculate D2E/DX2 analytically  !
 ! A50   A(21,23,34)           135.1415         calculate D2E/DX2 analytically  !
 ! A51   A(22,25,28)           122.489          calculate D2E/DX2 analytically  !
 ! A52   A(22,25,29)           117.582          calculate D2E/DX2 analytically  !
 ! A53   A(28,25,29)           119.809          calculate D2E/DX2 analytically  !
 ! A54   A(25,28,30)           119.9505         calculate D2E/DX2 analytically  !
 ! A55   A(25,28,31)           119.3411         calculate D2E/DX2 analytically  !
 ! A56   A(25,28,32)           103.7519         calculate D2E/DX2 analytically  !
 ! A57   A(30,28,31)           115.8429         calculate D2E/DX2 analytically  !
 ! A58   A(30,28,32)            95.639          calculate D2E/DX2 analytically  !
 ! A59   A(31,28,32)            92.3927         calculate D2E/DX2 analytically  !
 ! A60   A(28,32,33)            98.905          calculate D2E/DX2 analytically  !
 ! A61   A(28,32,34)           104.7564         calculate D2E/DX2 analytically  !
 ! A62   A(28,32,35)           116.7705         calculate D2E/DX2 analytically  !
 ! A63   A(33,32,34)           107.0605         calculate D2E/DX2 analytically  !
 ! A64   A(33,32,35)           109.2688         calculate D2E/DX2 analytically  !
 ! A65   A(34,32,35)           118.06           calculate D2E/DX2 analytically  !
 ! A66   A(32,33,36)           113.2393         calculate D2E/DX2 analytically  !
 ! A67   A(32,33,37)           103.8242         calculate D2E/DX2 analytically  !
 ! A68   A(32,33,38)           106.3542         calculate D2E/DX2 analytically  !
 ! A69   A(36,33,37)           110.8585         calculate D2E/DX2 analytically  !
 ! A70   A(36,33,38)           113.0772         calculate D2E/DX2 analytically  !
 ! A71   A(37,33,38)           108.9632         calculate D2E/DX2 analytically  !
 ! A72   A(23,34,32)           121.6889         calculate D2E/DX2 analytically  !
 ! A73   A(33,36,39)           110.1838         calculate D2E/DX2 analytically  !
 ! A74   A(33,36,40)           109.9945         calculate D2E/DX2 analytically  !
 ! A75   A(33,36,41)           109.7335         calculate D2E/DX2 analytically  !
 ! A76   A(39,36,40)           110.196          calculate D2E/DX2 analytically  !
 ! A77   A(39,36,41)           107.4528         calculate D2E/DX2 analytically  !
 ! A78   A(40,36,41)           109.2367         calculate D2E/DX2 analytically  !
 ! A79   A(36,40,42)           108.711          calculate D2E/DX2 analytically  !
 ! A80   A(36,40,43)           112.3041         calculate D2E/DX2 analytically  !
 ! A81   A(36,40,44)           107.9081         calculate D2E/DX2 analytically  !
 ! A82   A(42,40,43)           115.4802         calculate D2E/DX2 analytically  !
 ! A83   A(42,40,44)           104.1999         calculate D2E/DX2 analytically  !
 ! A84   A(43,40,44)           107.6802         calculate D2E/DX2 analytically  !
 ! A85   A(40,42,45)           122.3663         calculate D2E/DX2 analytically  !
 ! A86   A(40,42,46)           124.429          calculate D2E/DX2 analytically  !
 ! A87   A(45,42,46)           112.9258         calculate D2E/DX2 analytically  !
 ! A88   A(40,43,51)           109.6553         calculate D2E/DX2 analytically  !
 ! A89   A(40,43,52)           110.3933         calculate D2E/DX2 analytically  !
 ! A90   A(40,43,53)           112.1174         calculate D2E/DX2 analytically  !
 ! A91   A(51,43,52)           106.7473         calculate D2E/DX2 analytically  !
 ! A92   A(51,43,53)           108.8683         calculate D2E/DX2 analytically  !
 ! A93   A(52,43,53)           108.9005         calculate D2E/DX2 analytically  !
 ! A94   A(42,45,55)           105.3531         calculate D2E/DX2 analytically  !
 ! A95   A(42,46,47)           128.9041         calculate D2E/DX2 analytically  !
 ! A96   A(42,46,54)           106.5237         calculate D2E/DX2 analytically  !
 ! A97   A(47,46,54)           124.4585         calculate D2E/DX2 analytically  !
 ! A98   A(46,47,48)           110.6118         calculate D2E/DX2 analytically  !
 ! A99   A(46,47,49)           111.2714         calculate D2E/DX2 analytically  !
 ! A100  A(46,47,50)           108.2937         calculate D2E/DX2 analytically  !
 ! A101  A(48,47,49)           109.3728         calculate D2E/DX2 analytically  !
 ! A102  A(48,47,50)           108.3688         calculate D2E/DX2 analytically  !
 ! A103  A(49,47,50)           108.8525         calculate D2E/DX2 analytically  !
 ! A104  A(43,53,56)           109.7956         calculate D2E/DX2 analytically  !
 ! A105  A(43,53,57)           108.9291         calculate D2E/DX2 analytically  !
 ! A106  A(43,53,58)           112.0339         calculate D2E/DX2 analytically  !
 ! A107  A(56,53,57)           106.4754         calculate D2E/DX2 analytically  !
 ! A108  A(56,53,58)           109.5733         calculate D2E/DX2 analytically  !
 ! A109  A(57,53,58)           109.8765         calculate D2E/DX2 analytically  !
 ! A110  A(46,54,55)           105.3322         calculate D2E/DX2 analytically  !
 ! A111  A(46,54,59)           132.252          calculate D2E/DX2 analytically  !
 ! A112  A(55,54,59)           122.3985         calculate D2E/DX2 analytically  !
 ! A113  A(45,55,54)           109.8604         calculate D2E/DX2 analytically  !
 ! A114  A(45,55,60)           130.0837         calculate D2E/DX2 analytically  !
 ! A115  A(54,55,60)           120.0462         calculate D2E/DX2 analytically  !
 ! A116  A(53,58,61)           110.8712         calculate D2E/DX2 analytically  !
 ! A117  A(53,58,62)           111.31           calculate D2E/DX2 analytically  !
 ! A118  A(53,58,63)           110.8144         calculate D2E/DX2 analytically  !
 ! A119  A(61,58,62)           107.9609         calculate D2E/DX2 analytically  !
 ! A120  A(61,58,63)           107.7765         calculate D2E/DX2 analytically  !
 ! A121  A(62,58,63)           107.9662         calculate D2E/DX2 analytically  !
 ! A122  A(54,59,64)           116.7584         calculate D2E/DX2 analytically  !
 ! A123  A(54,59,65)           122.2774         calculate D2E/DX2 analytically  !
 ! A124  A(64,59,65)           120.9642         calculate D2E/DX2 analytically  !
 ! A125  A(55,60,66)           117.9426         calculate D2E/DX2 analytically  !
 ! A126  A(55,60,67)           120.4038         calculate D2E/DX2 analytically  !
 ! A127  A(66,60,67)           121.6516         calculate D2E/DX2 analytically  !
 ! A128  A(59,64,66)           121.5825         calculate D2E/DX2 analytically  !
 ! A129  A(59,64,68)           118.8814         calculate D2E/DX2 analytically  !
 ! A130  A(66,64,68)           119.5346         calculate D2E/DX2 analytically  !
 ! A131  A(60,66,64)           121.2642         calculate D2E/DX2 analytically  !
 ! A132  A(60,66,69)           119.6241         calculate D2E/DX2 analytically  !
 ! A133  A(64,66,69)           119.1115         calculate D2E/DX2 analytically  !
 ! D1    D(6,1,2,3)             -0.0537         calculate D2E/DX2 analytically  !
 ! D2    D(6,1,2,11)          -178.9515         calculate D2E/DX2 analytically  !
 ! D3    D(7,1,2,3)            179.809          calculate D2E/DX2 analytically  !
 ! D4    D(7,1,2,11)             0.9112         calculate D2E/DX2 analytically  !
 ! D5    D(2,1,6,5)              0.0087         calculate D2E/DX2 analytically  !
 ! D6    D(2,1,6,10)           179.8752         calculate D2E/DX2 analytically  !
 ! D7    D(7,1,6,5)           -179.8518         calculate D2E/DX2 analytically  !
 ! D8    D(7,1,6,10)             0.0147         calculate D2E/DX2 analytically  !
 ! D9    D(1,2,3,4)              0.0634         calculate D2E/DX2 analytically  !
 ! D10   D(1,2,3,12)          -179.5658         calculate D2E/DX2 analytically  !
 ! D11   D(11,2,3,4)           179.1612         calculate D2E/DX2 analytically  !
 ! D12   D(11,2,3,12)           -0.468          calculate D2E/DX2 analytically  !
 ! D13   D(1,2,11,17)          179.0632         calculate D2E/DX2 analytically  !
 ! D14   D(3,2,11,17)            0.0783         calculate D2E/DX2 analytically  !
 ! D15   D(2,3,4,5)             -0.0237         calculate D2E/DX2 analytically  !
 ! D16   D(2,3,4,8)           -179.7383         calculate D2E/DX2 analytically  !
 ! D17   D(12,3,4,5)           179.4975         calculate D2E/DX2 analytically  !
 ! D18   D(12,3,4,8)            -0.2171         calculate D2E/DX2 analytically  !
 ! D19   D(2,3,12,13)         -178.9022         calculate D2E/DX2 analytically  !
 ! D20   D(2,3,12,17)            0.643          calculate D2E/DX2 analytically  !
 ! D21   D(4,3,12,13)            1.5169         calculate D2E/DX2 analytically  !
 ! D22   D(4,3,12,17)         -178.9379         calculate D2E/DX2 analytically  !
 ! D23   D(3,4,5,6)             -0.0228         calculate D2E/DX2 analytically  !
 ! D24   D(3,4,5,9)           -179.8986         calculate D2E/DX2 analytically  !
 ! D25   D(8,4,5,6)            179.6929         calculate D2E/DX2 analytically  !
 ! D26   D(8,4,5,9)             -0.1828         calculate D2E/DX2 analytically  !
 ! D27   D(4,5,6,1)              0.0309         calculate D2E/DX2 analytically  !
 ! D28   D(4,5,6,10)          -179.8366         calculate D2E/DX2 analytically  !
 ! D29   D(9,5,6,1)            179.9067         calculate D2E/DX2 analytically  !
 ! D30   D(9,5,6,10)             0.0393         calculate D2E/DX2 analytically  !
 ! D31   D(2,11,17,12)           0.368          calculate D2E/DX2 analytically  !
 ! D32   D(2,11,17,18)         178.6237         calculate D2E/DX2 analytically  !
 ! D33   D(3,12,13,14)          35.9637         calculate D2E/DX2 analytically  !
 ! D34   D(3,12,13,15)         154.8714         calculate D2E/DX2 analytically  !
 ! D35   D(3,12,13,16)         -84.5649         calculate D2E/DX2 analytically  !
 ! D36   D(17,12,13,14)       -143.4675         calculate D2E/DX2 analytically  !
 ! D37   D(17,12,13,15)        -24.5598         calculate D2E/DX2 analytically  !
 ! D38   D(17,12,13,16)         96.0039         calculate D2E/DX2 analytically  !
 ! D39   D(3,12,17,11)          -0.6661         calculate D2E/DX2 analytically  !
 ! D40   D(3,12,17,18)        -178.8999         calculate D2E/DX2 analytically  !
 ! D41   D(13,12,17,11)        178.8545         calculate D2E/DX2 analytically  !
 ! D42   D(13,12,17,18)          0.6207         calculate D2E/DX2 analytically  !
 ! D43   D(11,17,18,19)          2.7714         calculate D2E/DX2 analytically  !
 ! D44   D(11,17,18,20)       -126.1166         calculate D2E/DX2 analytically  !
 ! D45   D(11,17,18,21)        118.9665         calculate D2E/DX2 analytically  !
 ! D46   D(12,17,18,19)       -179.1058         calculate D2E/DX2 analytically  !
 ! D47   D(12,17,18,20)         52.0061         calculate D2E/DX2 analytically  !
 ! D48   D(12,17,18,21)        -62.9108         calculate D2E/DX2 analytically  !
 ! D49   D(17,18,21,22)        166.1081         calculate D2E/DX2 analytically  !
 ! D50   D(17,18,21,23)         46.297          calculate D2E/DX2 analytically  !
 ! D51   D(17,18,21,24)        -72.0471         calculate D2E/DX2 analytically  !
 ! D52   D(19,18,21,22)        -79.1854         calculate D2E/DX2 analytically  !
 ! D53   D(19,18,21,23)        161.0035         calculate D2E/DX2 analytically  !
 ! D54   D(19,18,21,24)         42.6594         calculate D2E/DX2 analytically  !
 ! D55   D(20,18,21,22)         52.3838         calculate D2E/DX2 analytically  !
 ! D56   D(20,18,21,23)        -67.4273         calculate D2E/DX2 analytically  !
 ! D57   D(20,18,21,24)        174.2286         calculate D2E/DX2 analytically  !
 ! D58   D(18,21,22,25)       -174.4853         calculate D2E/DX2 analytically  !
 ! D59   D(18,21,22,26)        -53.1234         calculate D2E/DX2 analytically  !
 ! D60   D(18,21,22,27)         64.5968         calculate D2E/DX2 analytically  !
 ! D61   D(23,21,22,25)        -56.2208         calculate D2E/DX2 analytically  !
 ! D62   D(23,21,22,26)         65.1411         calculate D2E/DX2 analytically  !
 ! D63   D(23,21,22,27)       -177.1387         calculate D2E/DX2 analytically  !
 ! D64   D(24,21,22,25)         67.7054         calculate D2E/DX2 analytically  !
 ! D65   D(24,21,22,26)       -170.9327         calculate D2E/DX2 analytically  !
 ! D66   D(24,21,22,27)        -53.2125         calculate D2E/DX2 analytically  !
 ! D67   D(18,21,23,34)        107.1846         calculate D2E/DX2 analytically  !
 ! D68   D(22,21,23,34)        -11.7351         calculate D2E/DX2 analytically  !
 ! D69   D(24,21,23,34)       -137.0826         calculate D2E/DX2 analytically  !
 ! D70   D(21,22,25,28)        125.745          calculate D2E/DX2 analytically  !
 ! D71   D(21,22,25,29)        -50.2615         calculate D2E/DX2 analytically  !
 ! D72   D(26,22,25,28)          4.5805         calculate D2E/DX2 analytically  !
 ! D73   D(26,22,25,29)       -171.426          calculate D2E/DX2 analytically  !
 ! D74   D(27,22,25,28)       -113.9476         calculate D2E/DX2 analytically  !
 ! D75   D(27,22,25,29)         70.0459         calculate D2E/DX2 analytically  !
 ! D76   D(21,23,34,32)         61.155          calculate D2E/DX2 analytically  !
 ! D77   D(22,25,28,30)        170.4721         calculate D2E/DX2 analytically  !
 ! D78   D(22,25,28,31)         16.1802         calculate D2E/DX2 analytically  !
 ! D79   D(22,25,28,32)        -84.5903         calculate D2E/DX2 analytically  !
 ! D80   D(29,25,28,30)        -13.6074         calculate D2E/DX2 analytically  !
 ! D81   D(29,25,28,31)       -167.8994         calculate D2E/DX2 analytically  !
 ! D82   D(29,25,28,32)         91.3302         calculate D2E/DX2 analytically  !
 ! D83   D(25,28,32,33)        -71.6053         calculate D2E/DX2 analytically  !
 ! D84   D(25,28,32,34)         38.7817         calculate D2E/DX2 analytically  !
 ! D85   D(25,28,32,35)        171.4473         calculate D2E/DX2 analytically  !
 ! D86   D(30,28,32,33)         51.1225         calculate D2E/DX2 analytically  !
 ! D87   D(30,28,32,34)        161.5096         calculate D2E/DX2 analytically  !
 ! D88   D(30,28,32,35)        -65.8249         calculate D2E/DX2 analytically  !
 ! D89   D(31,28,32,33)        167.3881         calculate D2E/DX2 analytically  !
 ! D90   D(31,28,32,34)        -82.2248         calculate D2E/DX2 analytically  !
 ! D91   D(31,28,32,35)         50.4407         calculate D2E/DX2 analytically  !
 ! D92   D(28,32,33,36)        155.2904         calculate D2E/DX2 analytically  !
 ! D93   D(28,32,33,37)         34.9771         calculate D2E/DX2 analytically  !
 ! D94   D(28,32,33,38)        -79.919          calculate D2E/DX2 analytically  !
 ! D95   D(34,32,33,36)         46.7623         calculate D2E/DX2 analytically  !
 ! D96   D(34,32,33,37)        -73.5509         calculate D2E/DX2 analytically  !
 ! D97   D(34,32,33,38)        171.553          calculate D2E/DX2 analytically  !
 ! D98   D(35,32,33,36)        -82.1794         calculate D2E/DX2 analytically  !
 ! D99   D(35,32,33,37)        157.5073         calculate D2E/DX2 analytically  !
 ! D100  D(35,32,33,38)         42.6112         calculate D2E/DX2 analytically  !
 ! D101  D(28,32,34,23)        -38.3574         calculate D2E/DX2 analytically  !
 ! D102  D(33,32,34,23)         66.0182         calculate D2E/DX2 analytically  !
 ! D103  D(35,32,34,23)       -170.2879         calculate D2E/DX2 analytically  !
 ! D104  D(32,33,36,39)         88.7868         calculate D2E/DX2 analytically  !
 ! D105  D(32,33,36,40)       -149.5335         calculate D2E/DX2 analytically  !
 ! D106  D(32,33,36,41)        -29.3349         calculate D2E/DX2 analytically  !
 ! D107  D(37,33,36,39)       -154.9881         calculate D2E/DX2 analytically  !
 ! D108  D(37,33,36,40)        -33.3083         calculate D2E/DX2 analytically  !
 ! D109  D(37,33,36,41)         86.8903         calculate D2E/DX2 analytically  !
 ! D110  D(38,33,36,39)        -32.2809         calculate D2E/DX2 analytically  !
 ! D111  D(38,33,36,40)         89.3989         calculate D2E/DX2 analytically  !
 ! D112  D(38,33,36,41)       -150.4026         calculate D2E/DX2 analytically  !
 ! D113  D(33,36,40,42)         65.8981         calculate D2E/DX2 analytically  !
 ! D114  D(33,36,40,43)       -165.0612         calculate D2E/DX2 analytically  !
 ! D115  D(33,36,40,44)        -46.5366         calculate D2E/DX2 analytically  !
 ! D116  D(39,36,40,42)       -172.4294         calculate D2E/DX2 analytically  !
 ! D117  D(39,36,40,43)        -43.3887         calculate D2E/DX2 analytically  !
 ! D118  D(39,36,40,44)         75.1359         calculate D2E/DX2 analytically  !
 ! D119  D(41,36,40,42)        -54.6007         calculate D2E/DX2 analytically  !
 ! D120  D(41,36,40,43)         74.44           calculate D2E/DX2 analytically  !
 ! D121  D(41,36,40,44)       -167.0354         calculate D2E/DX2 analytically  !
 ! D122  D(36,40,42,45)        -96.3707         calculate D2E/DX2 analytically  !
 ! D123  D(36,40,42,46)         77.1294         calculate D2E/DX2 analytically  !
 ! D124  D(43,40,42,45)        136.3803         calculate D2E/DX2 analytically  !
 ! D125  D(43,40,42,46)        -50.1197         calculate D2E/DX2 analytically  !
 ! D126  D(44,40,42,45)         18.5008         calculate D2E/DX2 analytically  !
 ! D127  D(44,40,42,46)       -167.9992         calculate D2E/DX2 analytically  !
 ! D128  D(36,40,43,51)       -157.7275         calculate D2E/DX2 analytically  !
 ! D129  D(36,40,43,52)        -40.3905         calculate D2E/DX2 analytically  !
 ! D130  D(36,40,43,53)         81.2189         calculate D2E/DX2 analytically  !
 ! D131  D(42,40,43,51)        -32.3062         calculate D2E/DX2 analytically  !
 ! D132  D(42,40,43,52)         85.0309         calculate D2E/DX2 analytically  !
 ! D133  D(42,40,43,53)       -153.3597         calculate D2E/DX2 analytically  !
 ! D134  D(44,40,43,51)         83.6137         calculate D2E/DX2 analytically  !
 ! D135  D(44,40,43,52)       -159.0493         calculate D2E/DX2 analytically  !
 ! D136  D(44,40,43,53)        -37.4399         calculate D2E/DX2 analytically  !
 ! D137  D(40,42,45,55)        174.4178         calculate D2E/DX2 analytically  !
 ! D138  D(46,42,45,55)          0.2364         calculate D2E/DX2 analytically  !
 ! D139  D(40,42,46,47)          9.1506         calculate D2E/DX2 analytically  !
 ! D140  D(40,42,46,54)       -174.6423         calculate D2E/DX2 analytically  !
 ! D141  D(45,42,46,47)       -176.8083         calculate D2E/DX2 analytically  !
 ! D142  D(45,42,46,54)         -0.6013         calculate D2E/DX2 analytically  !
 ! D143  D(40,43,53,56)        -55.0728         calculate D2E/DX2 analytically  !
 ! D144  D(40,43,53,57)         61.1642         calculate D2E/DX2 analytically  !
 ! D145  D(40,43,53,58)       -177.0633         calculate D2E/DX2 analytically  !
 ! D146  D(51,43,53,56)       -176.579          calculate D2E/DX2 analytically  !
 ! D147  D(51,43,53,57)        -60.342          calculate D2E/DX2 analytically  !
 ! D148  D(51,43,53,58)         61.4305         calculate D2E/DX2 analytically  !
 ! D149  D(52,43,53,56)         67.3883         calculate D2E/DX2 analytically  !
 ! D150  D(52,43,53,57)       -176.3747         calculate D2E/DX2 analytically  !
 ! D151  D(52,43,53,58)        -54.6022         calculate D2E/DX2 analytically  !
 ! D152  D(42,45,55,54)          0.2185         calculate D2E/DX2 analytically  !
 ! D153  D(42,45,55,60)       -178.6253         calculate D2E/DX2 analytically  !
 ! D154  D(42,46,47,48)        -45.2777         calculate D2E/DX2 analytically  !
 ! D155  D(42,46,47,49)         76.5073         calculate D2E/DX2 analytically  !
 ! D156  D(42,46,47,50)       -163.8943         calculate D2E/DX2 analytically  !
 ! D157  D(54,46,47,48)        139.1336         calculate D2E/DX2 analytically  !
 ! D158  D(54,46,47,49)        -99.0815         calculate D2E/DX2 analytically  !
 ! D159  D(54,46,47,50)         20.5169         calculate D2E/DX2 analytically  !
 ! D160  D(42,46,54,55)          0.6835         calculate D2E/DX2 analytically  !
 ! D161  D(42,46,54,59)        179.1554         calculate D2E/DX2 analytically  !
 ! D162  D(47,46,54,55)        177.104          calculate D2E/DX2 analytically  !
 ! D163  D(47,46,54,59)         -4.4241         calculate D2E/DX2 analytically  !
 ! D164  D(43,53,58,61)         60.7968         calculate D2E/DX2 analytically  !
 ! D165  D(43,53,58,62)       -179.0059         calculate D2E/DX2 analytically  !
 ! D166  D(43,53,58,63)        -58.8403         calculate D2E/DX2 analytically  !
 ! D167  D(56,53,58,61)        -61.3207         calculate D2E/DX2 analytically  !
 ! D168  D(56,53,58,62)         58.8766         calculate D2E/DX2 analytically  !
 ! D169  D(56,53,58,63)        179.0422         calculate D2E/DX2 analytically  !
 ! D170  D(57,53,58,61)       -177.9752         calculate D2E/DX2 analytically  !
 ! D171  D(57,53,58,62)        -57.7779         calculate D2E/DX2 analytically  !
 ! D172  D(57,53,58,63)         62.3877         calculate D2E/DX2 analytically  !
 ! D173  D(46,54,55,45)         -0.5725         calculate D2E/DX2 analytically  !
 ! D174  D(46,54,55,60)        178.4056         calculate D2E/DX2 analytically  !
 ! D175  D(59,54,55,45)       -179.2329         calculate D2E/DX2 analytically  !
 ! D176  D(59,54,55,60)         -0.2548         calculate D2E/DX2 analytically  !
 ! D177  D(46,54,59,64)       -177.3532         calculate D2E/DX2 analytically  !
 ! D178  D(46,54,59,65)          2.7222         calculate D2E/DX2 analytically  !
 ! D179  D(55,54,59,64)          0.9013         calculate D2E/DX2 analytically  !
 ! D180  D(55,54,59,65)       -179.0232         calculate D2E/DX2 analytically  !
 ! D181  D(45,55,60,66)        178.3502         calculate D2E/DX2 analytically  !
 ! D182  D(45,55,60,67)         -1.1393         calculate D2E/DX2 analytically  !
 ! D183  D(54,55,60,66)         -0.3935         calculate D2E/DX2 analytically  !
 ! D184  D(54,55,60,67)       -179.883          calculate D2E/DX2 analytically  !
 ! D185  D(54,59,64,66)         -0.9227         calculate D2E/DX2 analytically  !
 ! D186  D(54,59,64,68)        178.6328         calculate D2E/DX2 analytically  !
 ! D187  D(65,59,64,66)        179.0029         calculate D2E/DX2 analytically  !
 ! D188  D(65,59,64,68)         -1.4416         calculate D2E/DX2 analytically  !
 ! D189  D(55,60,66,64)          0.3696         calculate D2E/DX2 analytically  !
 ! D190  D(55,60,66,69)       -179.4491         calculate D2E/DX2 analytically  !
 ! D191  D(67,60,66,64)        179.8524         calculate D2E/DX2 analytically  !
 ! D192  D(67,60,66,69)          0.0337         calculate D2E/DX2 analytically  !
 ! D193  D(59,64,66,60)          0.3082         calculate D2E/DX2 analytically  !
 ! D194  D(59,64,66,69)       -179.8722         calculate D2E/DX2 analytically  !
 ! D195  D(68,64,66,60)       -179.2444         calculate D2E/DX2 analytically  !
 ! D196  D(68,64,66,69)          0.5752         calculate D2E/DX2 analytically  !
 --------------------------------------------------------------------------------
 Trust Radius=3.00D-02 FncErr=1.00D-07 GrdErr=1.00D-06 EigMax=2.50D+02 EigMin=1.00D-04
 Number of steps in this run=    412 maximum allowed number of steps=    414.
 Search for a saddle point of order  1.
 GradGradGradGradGradGradGradGradGradGradGradGradGradGradGradGradGradGrad

 Stoichiometry    C26H33N4O4S2(2)
 Framework group  C1[X(C26H33N4O4S2)]
 Deg. of freedom   201
 Full point group                 C1      NOp   1
 Largest Abelian subgroup         C1      NOp   1
 Largest concise Abelian subgroup C1      NOp   1
                         Standard orientation:                         
 ---------------------------------------------------------------------
 Center     Atomic      Atomic             Coordinates (Angstroms)
 Number     Number       Type             X           Y           Z
 ---------------------------------------------------------------------
      1          6           0        4.898665    2.400595   -0.118358
      2          6           0        4.027772    1.342025   -0.417586
      3          6           0        2.989714    1.522766   -1.354555
      4          6           0        2.778479    2.736328   -2.020408
      5          6           0        3.650569    3.765640   -1.709499
      6          6           0        4.695557    3.601940   -0.772315
      7          1           0        5.697096    2.268045    0.603964
      8          1           0        1.974310    2.867782   -2.737084
      9          1           0        3.527527    4.726763   -2.197696
     10          1           0        5.348949    4.442472   -0.563707
     11          7           0        3.988104    0.058744    0.093470
     12          7           0        2.323894    0.316097   -1.409759
     13          6           0        1.181589    0.016950   -2.266334
     14          1           0        1.318778    0.536219   -3.215903
     15          1           0        1.132311   -1.055136   -2.452360
     16          1           0        0.247375    0.341173   -1.800302
     17          6           0        2.974702   -0.489274   -0.516533
     18         16           0        2.512266   -2.192048   -0.228977
     19          8           0        3.408991   -2.718783    0.795609
     20          8           0        2.463038   -2.846124   -1.541612
     21          6           0        0.845909   -2.102572    0.425087
     22          6           0        0.218626   -3.502358    0.383935
     23          1           0        0.275185   -1.411000   -0.202761
     24          1           0        0.935597   -1.707550    1.441504
     25          6           0       -1.217950   -3.453169    0.795929
     26          1           0        0.301396   -3.910578   -0.627804
     27          1           0        0.778594   -4.161956    1.060554
     28          6           0       -2.228798   -3.959293    0.012730
     29          1           0       -1.459019   -2.936512    1.723879
     30          1           0       -3.236090   -4.043703    0.413944
     31          1           0       -1.983485   -4.639767   -0.800864
     32         16           0       -2.712494   -2.222891   -1.455533
     33          6           0       -3.520120   -1.094787   -0.298189
     34          8           0       -1.395096   -1.633153   -1.789598
     35          8           0       -3.639119   -2.528452   -2.565752
     36          6           0       -3.450376    0.368740   -0.734406
     37          1           0       -2.976047   -1.248474    0.639817
     38          1           0       -4.543569   -1.457628   -0.178503
     39          1           0       -4.305698    0.614230   -1.369389
     40          6           0       -3.425503    1.290336    0.507825
     41          1           0       -2.542790    0.535738   -1.326286
     42          6           0       -2.143857    1.054252    1.258029
     43          6           0       -3.724084    2.757914    0.152497
     44          1           0       -4.207571    0.948672    1.197014
     45          7           0       -2.070621    0.238992    2.288247
     46          7           0       -0.917650    1.549796    0.878437
     47          6           0       -0.605518    2.515543   -0.163115
     48          1           0       -1.151798    2.283268   -1.078432
     49          1           0       -0.846406    3.532755    0.154464
     50          1           0        0.463942    2.456307   -0.376170
     51          1           0       -3.320543    3.416084    0.932601
     52          1           0       -3.223772    3.033887   -0.783837
     53          6           0       -5.223790    3.022141    0.009446
     54          6           0        0.010429    1.012636    1.750359
     55          6           0       -0.729447    0.188406    2.620429
     56          1           0       -5.654804    2.329388   -0.723909
     57          1           0       -5.715626    2.808017    0.966081
     58          6           0       -5.514165    4.459696   -0.412994
     59          6           0        1.396767    1.143155    1.842478
     60          6           0       -0.075071   -0.541870    3.620043
     61          1           0       -5.059996    4.680065   -1.384637
     62          1           0       -6.589476    4.640369   -0.494670
     63          1           0       -5.106809    5.169042    0.315049
     64          6           0        2.030695    0.400549    2.831001
     65          1           0        1.963888    1.791624    1.180078
     66          6           0        1.305940   -0.428438    3.710338
     67          1           0       -0.639383   -1.180378    4.292585
     68          1           0        3.110849    0.458737    2.918799
     69          1           0        1.841744   -0.989334    4.469211
 ---------------------------------------------------------------------
 Rotational constants (GHZ):           0.1270021           0.0876964           0.0705384
 Standard basis: 6-31G(d) (6D, 7F)
 There are   614 symmetry adapted cartesian basis functions of A   symmetry.
 There are   614 symmetry adapted basis functions of A   symmetry.
   614 basis functions,  1188 primitive gaussians,   614 cartesian basis functions
   141 alpha electrons      140 beta electrons
       nuclear repulsion energy      4775.1235442116 Hartrees.
 NAtoms=   69 NActive=   69 NUniq=   69 SFac= 1.00D+00 NAtFMM=   60 NAOKFM=T Big=T
 Integral buffers will be    131072 words long.
 Raffenetti 2 integral format.
 Two-electron integral symmetry is turned on.
 One-electron integrals computed using PRISM.
 NBasis=   614 RedAO= T EigKep=  3.60D-04  NBF=   614
 NBsUse=   614 1.00D-06 EigRej= -1.00D+00 NBFU=   614
 ExpMin= 1.17D-01 ExpMax= 2.19D+04 ExpMxC= 3.30D+03 IAcc=3 IRadAn=         5 AccDes= 0.00D+00
 Harris functional with IExCor= 1009 and IRadAn=       5 diagonalized for initial guess.
 HarFok:  IExCor= 1009 AccDes= 0.00D+00 IRadAn=         5 IDoV= 1 UseB2=F ITyADJ=14
 ICtDFT=  3500011 ScaDFX=  1.000000  1.000000  1.000000  1.000000
 FoFCou: FMM=F IPFlag=           0 FMFlag=      100000 FMFlg1=        2001
         NFxFlg=           0 DoJE=T BraDBF=F KetDBF=T FulRan=T
         wScrn=  0.000000 ICntrl=       500 IOpCl=  0 I1Cent=   200000004 NGrid=           0
         NMat0=    1 NMatS0=      1 NMatT0=    0 NMatD0=    1 NMtDS0=    0 NMtDT0=    0
 Petite list used in FoFCou.
 Initial guess <Sx>= 0.0000 <Sy>= 0.0000 <Sz>= 0.5000 <S**2>= 0.7500 S= 0.5000
 Requested convergence on RMS density matrix=1.00D-08 within 128 cycles.
 Requested convergence on MAX density matrix=1.00D-06.
 Requested convergence on             energy=1.00D-06.
 No special actions if energy rises.
 Integral accuracy reduced to 1.0D-05 until final iterations.
 Initial convergence to 1.0D-05 achieved.  Increase integral accuracy.
 SCF Done:  E(UM062X) =  -2326.05637642     A.U. after   20 cycles
            NFock= 20  Conv=0.75D-08     -V/T= 2.0067
 <Sx>= 0.0000 <Sy>= 0.0000 <Sz>= 0.5000 <S**2>= 0.7776 S= 0.5137
 <L.S>=  0.00000000000    
 Annihilation of the first spin contaminant:
 S**2 before annihilation     0.7776,   after     0.7502
 DoSCS=F DFT=T ScalE2(SS,OS)=  1.000000  1.000000
 Range of M.O.s used for correlation:     1   614
 NBasis=   614 NAE=   141 NBE=   140 NFC=     0 NFV=     0
 NROrb=    614 NOA=   141 NOB=   140 NVA=   473 NVB=   474
 Symmetrizing basis deriv contribution to polar:
 IMax=3 JMax=2 DiffMx= 0.00D+00
 G2DrvN: will do    35 centers at a time, making    2 passes.
 Calling FoFCou, ICntrl=  3107 FMM=T I1Cent=   0 AccDes= 0.00D+00.
 Calling FoFCou, ICntrl=  3107 FMM=T I1Cent=   0 AccDes= 0.00D+00.
 End of G2Drv F.D. properties file   721 does not exist.
 End of G2Drv F.D. properties file   722 does not exist.
 End of G2Drv F.D. properties file   788 does not exist.
          IDoAtm=11111111111111111111111111111111111111111111111111
          IDoAtm=1111111111111111111
          Differentiating once with respect to nuclear coordinates.
 CalDSu exits because no D1Ps are significant.
          There are   210 degrees of freedom in the 1st order CPHF.  IDoFFX=6 NUNeed=     0.
    207 vectors produced by pass  0 Test12= 1.33D-13 1.00D-09 XBig12= 3.85D-01 1.45D-01.
 AX will form    69 AO Fock derivatives at one time.
    207 vectors produced by pass  1 Test12= 1.33D-13 1.00D-09 XBig12= 5.70D-02 4.96D-02.
    206 vectors produced by pass  2 Test12= 1.33D-13 1.00D-09 XBig12= 1.11D-03 5.74D-03.
    204 vectors produced by pass  3 Test12= 1.33D-13 1.00D-09 XBig12= 1.15D-05 2.61D-04.
    204 vectors produced by pass  4 Test12= 1.33D-13 1.00D-09 XBig12= 9.23D-08 2.40D-05.
    204 vectors produced by pass  5 Test12= 1.33D-13 1.00D-09 XBig12= 9.01D-10 1.71D-06.
    173 vectors produced by pass  6 Test12= 1.33D-13 1.00D-09 XBig12= 6.23D-12 1.43D-07.
     44 vectors produced by pass  7 Test12= 1.33D-13 1.00D-09 XBig12= 3.63D-14 9.73D-09.
      1 vectors produced by pass  8 Test12= 1.33D-13 1.00D-09 XBig12= 6.00D-16 1.78D-09.
 InvSVY:  IOpt=1 It=  1 EMax= 8.88D-16
 Solved reduced A of dimension  1450 with   210 vectors.
 End of Minotr F.D. properties file   721 does not exist.
 End of Minotr F.D. properties file   722 does not exist.
 End of Minotr F.D. properties file   788 does not exist.

 **********************************************************************

            Population analysis using the SCF Density.

 **********************************************************************

 Orbital symmetries:
 Alpha Orbitals:
       Occupied  (A) (A) (A) (A) (A) (A) (A) (A) (A) (A) (A) (A)
                 (A) (A) (A) (A) (A) (A) (A) (A) (A) (A) (A) (A)
                 (A) (A) (A) (A) (A) (A) (A) (A) (A) (A) (A) (A)
                 (A) (A) (A) (A) (A) (A) (A) (A) (A) (A) (A) (A)
                 (A) (A) (A) (A) (A) (A) (A) (A) (A) (A) (A) (A)
                 (A) (A) (A) (A) (A) (A) (A) (A) (A) (A) (A) (A)
                 (A) (A) (A) (A) (A) (A) (A) (A) (A) (A) (A) (A)
                 (A) (A) (A) (A) (A) (A) (A) (A) (A) (A) (A) (A)
                 (A) (A) (A) (A) (A) (A) (A) (A) (A) (A) (A) (A)
                 (A) (A) (A) (A) (A) (A) (A) (A) (A) (A) (A) (A)
                 (A) (A) (A) (A) (A) (A) (A) (A) (A) (A) (A) (A)
                 (A) (A) (A) (A) (A) (A) (A) (A) (A)
       Virtual   (A) (A) (A) (A) (A) (A) (A) (A) (A) (A) (A) (A)
                 (A) (A) (A) (A) (A) (A) (A) (A) (A) (A) (A) (A)
                 (A) (A) (A) (A) (A) (A) (A) (A) (A) (A) (A) (A)
                 (A) (A) (A) (A) (A) (A) (A) (A) (A) (A) (A) (A)
                 (A) (A) (A) (A) (A) (A) (A) (A) (A) (A) (A) (A)
                 (A) (A) (A) (A) (A) (A) (A) (A) (A) (A) (A) (A)
                 (A) (A) (A) (A) (A) (A) (A) (A) (A) (A) (A) (A)
                 (A) (A) (A) (A) (A) (A) (A) (A) (A) (A) (A) (A)
                 (A) (A) (A) (A) (A) (A) (A) (A) (A) (A) (A) (A)
                 (A) (A) (A) (A) (A) (A) (A) (A) (A) (A) (A) (A)
                 (A) (A) (A) (A) (A) (A) (A) (A) (A) (A) (A) (A)
                 (A) (A) (A) (A) (A) (A) (A) (A) (A) (A) (A) (A)
                 (A) (A) (A) (A) (A) (A) (A) (A) (A) (A) (A) (A)
                 (A) (A) (A) (A) (A) (A) (A) (A) (A) (A) (A) (A)
                 (A) (A) (A) (A) (A) (A) (A) (A) (A) (A) (A) (A)
                 (A) (A) (A) (A) (A) (A) (A) (A) (A) (A) (A) (A)
                 (A) (A) (A) (A) (A) (A) (A) (A) (A) (A) (A) (A)
                 (A) (A) (A) (A) (A) (A) (A) (A) (A) (A) (A) (A)
                 (A) (A) (A) (A) (A) (A) (A) (A) (A) (A) (A) (A)
                 (A) (A) (A) (A) (A) (A) (A) (A) (A) (A) (A) (A)
                 (A) (A) (A) (A) (A) (A) (A) (A) (A) (A) (A) (A)
                 (A) (A) (A) (A) (A) (A) (A) (A) (A) (A) (A) (A)
                 (A) (A) (A) (A) (A) (A) (A) (A) (A) (A) (A) (A)
                 (A) (A) (A) (A) (A) (A) (A) (A) (A) (A) (A) (A)
                 (A) (A) (A) (A) (A) (A) (A) (A) (A) (A) (A) (A)
                 (A) (A) (A) (A) (A) (A) (A) (A) (A) (A) (A) (A)
                 (A) (A) (A) (A) (A) (A) (A) (A) (A) (A) (A) (A)
                 (A) (A) (A) (A) (A) (A) (A) (A) (A) (A) (A) (A)
                 (A) (A) (A) (A) (A) (A) (A) (A) (A) (A) (A) (A)
                 (A) (A) (A) (A) (A) (A) (A) (A) (A) (A) (A) (A)
                 (A) (A) (A) (A) (A) (A) (A) (A) (A) (A) (A) (A)
                 (A) (A) (A) (A) (A) (A) (A) (A) (A) (A) (A) (A)
                 (A) (A) (A) (A) (A) (A) (A) (A) (A) (A) (A) (A)
                 (A) (A) (A) (A) (A) (A) (A) (A) (A) (A) (A) (A)
                 (A) (A) (A) (A) (A) (A) (A) (A) (A) (A) (A) (A)
                 (A) (A) (A) (A) (A) (A) (A) (A) (A) (A) (A) (A)
                 (A) (A) (A) (A) (A) (A) (A) (A) (A) (A) (A) (A)
                 (A) (A) (A) (A) (A) (A) (A) (A) (A) (A) (A) (A)
                 (A) (A) (A) (A) (A) (A) (A) (A) (A) (A) (A) (A)
                 (A) (A) (A) (A) (A)
 Beta  Orbitals:
       Occupied  (A) (A) (A) (A) (A) (A) (A) (A) (A) (A) (A) (A)
                 (A) (A) (A) (A) (A) (A) (A) (A) (A) (A) (A) (A)
                 (A) (A) (A) (A) (A) (A) (A) (A) (A) (A) (A) (A)
                 (A) (A) (A) (A) (A) (A) (A) (A) (A) (A) (A) (A)
                 (A) (A) (A) (A) (A) (A) (A) (A) (A) (A) (A) (A)
                 (A) (A) (A) (A) (A) (A) (A) (A) (A) (A) (A) (A)
                 (A) (A) (A) (A) (A) (A) (A) (A) (A) (A) (A) (A)
                 (A) (A) (A) (A) (A) (A) (A) (A) (A) (A) (A) (A)
                 (A) (A) (A) (A) (A) (A) (A) (A) (A) (A) (A) (A)
                 (A) (A) (A) (A) (A) (A) (A) (A) (A) (A) (A) (A)
                 (A) (A) (A) (A) (A) (A) (A) (A) (A) (A) (A) (A)
                 (A) (A) (A) (A) (A) (A) (A) (A)
       Virtual   (A) (A) (A) (A) (A) (A) (A) (A) (A) (A) (A) (A)
                 (A) (A) (A) (A) (A) (A) (A) (A) (A) (A) (A) (A)
                 (A) (A) (A) (A) (A) (A) (A) (A) (A) (A) (A) (A)
                 (A) (A) (A) (A) (A) (A) (A) (A) (A) (A) (A) (A)
                 (A) (A) (A) (A) (A) (A) (A) (A) (A) (A) (A) (A)
                 (A) (A) (A) (A) (A) (A) (A) (A) (A) (A) (A) (A)
                 (A) (A) (A) (A) (A) (A) (A) (A) (A) (A) (A) (A)
                 (A) (A) (A) (A) (A) (A) (A) (A) (A) (A) (A) (A)
                 (A) (A) (A) (A) (A) (A) (A) (A) (A) (A) (A) (A)
                 (A) (A) (A) (A) (A) (A) (A) (A) (A) (A) (A) (A)
                 (A) (A) (A) (A) (A) (A) (A) (A) (A) (A) (A) (A)
                 (A) (A) (A) (A) (A) (A) (A) (A) (A) (A) (A) (A)
                 (A) (A) (A) (A) (A) (A) (A) (A) (A) (A) (A) (A)
                 (A) (A) (A) (A) (A) (A) (A) (A) (A) (A) (A) (A)
                 (A) (A) (A) (A) (A) (A) (A) (A) (A) (A) (A) (A)
                 (A) (A) (A) (A) (A) (A) (A) (A) (A) (A) (A) (A)
                 (A) (A) (A) (A) (A) (A) (A) (A) (A) (A) (A) (A)
                 (A) (A) (A) (A) (A) (A) (A) (A) (A) (A) (A) (A)
                 (A) (A) (A) (A) (A) (A) (A) (A) (A) (A) (A) (A)
                 (A) (A) (A) (A) (A) (A) (A) (A) (A) (A) (A) (A)
                 (A) (A) (A) (A) (A) (A) (A) (A) (A) (A) (A) (A)
                 (A) (A) (A) (A) (A) (A) (A) (A) (A) (A) (A) (A)
                 (A) (A) (A) (A) (A) (A) (A) (A) (A) (A) (A) (A)
                 (A) (A) (A) (A) (A) (A) (A) (A) (A) (A) (A) (A)
                 (A) (A) (A) (A) (A) (A) (A) (A) (A) (A) (A) (A)
                 (A) (A) (A) (A) (A) (A) (A) (A) (A) (A) (A) (A)
                 (A) (A) (A) (A) (A) (A) (A) (A) (A) (A) (A) (A)
                 (A) (A) (A) (A) (A) (A) (A) (A) (A) (A) (A) (A)
                 (A) (A) (A) (A) (A) (A) (A) (A) (A) (A) (A) (A)
                 (A) (A) (A) (A) (A) (A) (A) (A) (A) (A) (A) (A)
                 (A) (A) (A) (A) (A) (A) (A) (A) (A) (A) (A) (A)
                 (A) (A) (A) (A) (A) (A) (A) (A) (A) (A) (A) (A)
                 (A) (A) (A) (A) (A) (A) (A) (A) (A) (A) (A) (A)
                 (A) (A) (A) (A) (A) (A) (A) (A) (A) (A) (A) (A)
                 (A) (A) (A) (A) (A) (A) (A) (A) (A) (A) (A) (A)
                 (A) (A) (A) (A) (A) (A) (A) (A) (A) (A) (A) (A)
                 (A) (A) (A) (A) (A) (A) (A) (A) (A) (A) (A) (A)
                 (A) (A) (A) (A) (A) (A) (A) (A) (A) (A) (A) (A)
                 (A) (A) (A) (A) (A) (A) (A) (A) (A) (A) (A) (A)
                 (A) (A) (A) (A) (A) (A)
 The electronic state is 2-A.
 Alpha  occ. eigenvalues --  -90.13758 -90.11363 -19.64880 -19.64527 -19.62787
 Alpha  occ. eigenvalues --  -19.62619 -14.84174 -14.83334 -14.76513 -14.75387
 Alpha  occ. eigenvalues --  -10.64197 -10.63031 -10.61262 -10.60173 -10.59918
 Alpha  occ. eigenvalues --  -10.59709 -10.59277 -10.59114 -10.58964 -10.58602
 Alpha  occ. eigenvalues --  -10.58484 -10.58448 -10.58282 -10.57696 -10.57344
 Alpha  occ. eigenvalues --  -10.57321 -10.56890 -10.56741 -10.56389 -10.56219
 Alpha  occ. eigenvalues --  -10.56131 -10.56029 -10.55744 -10.55453 -10.55255
 Alpha  occ. eigenvalues --  -10.54884  -8.45175  -8.43353  -6.37321  -6.37305
 Alpha  occ. eigenvalues --   -6.37234  -6.35585  -6.35355  -6.35253  -1.22029
 Alpha  occ. eigenvalues --   -1.21868  -1.15524  -1.14787  -1.11888  -1.10888
 Alpha  occ. eigenvalues --   -1.01838  -1.01086  -0.96651  -0.96333  -0.94475
 Alpha  occ. eigenvalues --   -0.94007  -0.90664  -0.88591  -0.86771  -0.86237
 Alpha  occ. eigenvalues --   -0.85539  -0.85225  -0.83035  -0.82736  -0.81885
 Alpha  occ. eigenvalues --   -0.79602  -0.78106  -0.74600  -0.73780  -0.70367
 Alpha  occ. eigenvalues --   -0.70216  -0.69737  -0.68988  -0.68310  -0.67469
 Alpha  occ. eigenvalues --   -0.66714  -0.65851  -0.65752  -0.60952  -0.60250
 Alpha  occ. eigenvalues --   -0.59771  -0.59075  -0.58688  -0.58493  -0.58096
 Alpha  occ. eigenvalues --   -0.57521  -0.57119  -0.56587  -0.55854  -0.55705
 Alpha  occ. eigenvalues --   -0.54900  -0.54589  -0.53887  -0.52741  -0.52413
 Alpha  occ. eigenvalues --   -0.52289  -0.51681  -0.51605  -0.51499  -0.50880
 Alpha  occ. eigenvalues --   -0.50757  -0.50147  -0.49773  -0.49371  -0.49188
 Alpha  occ. eigenvalues --   -0.48876  -0.48593  -0.48238  -0.47290  -0.46690
 Alpha  occ. eigenvalues --   -0.45241  -0.44657  -0.44310  -0.43886  -0.43596
 Alpha  occ. eigenvalues --   -0.43467  -0.43135  -0.42655  -0.42233  -0.42101
 Alpha  occ. eigenvalues --   -0.41290  -0.41128  -0.40814  -0.40332  -0.39830
 Alpha  occ. eigenvalues --   -0.39187  -0.39036  -0.38651  -0.38254  -0.37440
 Alpha  occ. eigenvalues --   -0.36916  -0.36357  -0.36282  -0.35796  -0.34906
 Alpha  occ. eigenvalues --   -0.34594  -0.29496  -0.29073  -0.28501  -0.27910
 Alpha  occ. eigenvalues --   -0.25961
 Alpha virt. eigenvalues --   -0.01096   0.00645   0.03062   0.04029   0.04789
 Alpha virt. eigenvalues --    0.06334   0.07153   0.07655   0.09747   0.10891
 Alpha virt. eigenvalues --    0.11268   0.11608   0.11817   0.12107   0.12594
 Alpha virt. eigenvalues --    0.13001   0.13124   0.13569   0.13789   0.14559
 Alpha virt. eigenvalues --    0.14957   0.15172   0.15427   0.15613   0.15979
 Alpha virt. eigenvalues --    0.16310   0.17255   0.18211   0.18430   0.18847
 Alpha virt. eigenvalues --    0.19250   0.19460   0.19836   0.20048   0.20292
 Alpha virt. eigenvalues --    0.20752   0.20927   0.21357   0.21445   0.21721
 Alpha virt. eigenvalues --    0.21886   0.21980   0.22175   0.22611   0.23143
 Alpha virt. eigenvalues --    0.23529   0.23699   0.23969   0.24239   0.24892
 Alpha virt. eigenvalues --    0.25599   0.26525   0.26790   0.27641   0.28122
 Alpha virt. eigenvalues --    0.28309   0.29229   0.29705   0.30239   0.30468
 Alpha virt. eigenvalues --    0.30977   0.31473   0.31663   0.32397   0.33522
 Alpha virt. eigenvalues --    0.33976   0.35561   0.36386   0.37241   0.37668
 Alpha virt. eigenvalues --    0.38644   0.39330   0.40893   0.41164   0.42032
 Alpha virt. eigenvalues --    0.42665   0.43439   0.43951   0.45051   0.46468
 Alpha virt. eigenvalues --    0.47197   0.47733   0.48425   0.49223   0.50261
 Alpha virt. eigenvalues --    0.50469   0.51863   0.52388   0.53440   0.53928
 Alpha virt. eigenvalues --    0.54602   0.54976   0.55342   0.56096   0.56735
 Alpha virt. eigenvalues --    0.57381   0.57540   0.57992   0.58104   0.58683
 Alpha virt. eigenvalues --    0.58965   0.59260   0.59801   0.60657   0.61241
 Alpha virt. eigenvalues --    0.61637   0.61907   0.62969   0.63545   0.63909
 Alpha virt. eigenvalues --    0.64255   0.64732   0.65049   0.65180   0.65388
 Alpha virt. eigenvalues --    0.65621   0.66354   0.66736   0.67371   0.67807
 Alpha virt. eigenvalues --    0.68685   0.68995   0.69588   0.70501   0.70777
 Alpha virt. eigenvalues --    0.70876   0.71627   0.71884   0.72046   0.72603
 Alpha virt. eigenvalues --    0.73518   0.73616   0.74028   0.74394   0.74780
 Alpha virt. eigenvalues --    0.75162   0.75801   0.76654   0.77205   0.77446
 Alpha virt. eigenvalues --    0.79084   0.79755   0.81045   0.81490   0.82043
 Alpha virt. eigenvalues --    0.82623   0.83239   0.84178   0.84235   0.84999
 Alpha virt. eigenvalues --    0.85728   0.86087   0.86342   0.86726   0.87298
 Alpha virt. eigenvalues --    0.87645   0.88304   0.88655   0.88691   0.89304
 Alpha virt. eigenvalues --    0.89529   0.89885   0.90093   0.90606   0.90906
 Alpha virt. eigenvalues --    0.91158   0.91544   0.91670   0.92533   0.93123
 Alpha virt. eigenvalues --    0.93285   0.93433   0.94252   0.94526   0.94652
 Alpha virt. eigenvalues --    0.95165   0.95461   0.95619   0.96053   0.96491
 Alpha virt. eigenvalues --    0.96843   0.97386   0.97600   0.97889   0.98216
 Alpha virt. eigenvalues --    0.99090   0.99411   0.99637   1.00146   1.00677
 Alpha virt. eigenvalues --    1.01050   1.01296   1.02018   1.02150   1.02680
 Alpha virt. eigenvalues --    1.02936   1.03499   1.03823   1.04399   1.05023
 Alpha virt. eigenvalues --    1.05110   1.05956   1.07006   1.07236   1.08011
 Alpha virt. eigenvalues --    1.08234   1.09362   1.10030   1.10767   1.11146
 Alpha virt. eigenvalues --    1.12349   1.13566   1.14585   1.14946   1.16075
 Alpha virt. eigenvalues --    1.16339   1.17449   1.17857   1.18427   1.18861
 Alpha virt. eigenvalues --    1.19201   1.19723   1.21232   1.21609   1.22354
 Alpha virt. eigenvalues --    1.22926   1.23407   1.24178   1.24943   1.25675
 Alpha virt. eigenvalues --    1.25926   1.26835   1.27823   1.28998   1.29188
 Alpha virt. eigenvalues --    1.30035   1.31002   1.31709   1.32649   1.33499
 Alpha virt. eigenvalues --    1.34785   1.35711   1.36013   1.37407   1.37532
 Alpha virt. eigenvalues --    1.38515   1.39266   1.40015   1.40531   1.41688
 Alpha virt. eigenvalues --    1.42260   1.43026   1.44150   1.44738   1.45335
 Alpha virt. eigenvalues --    1.46229   1.46454   1.47581   1.48656   1.49255
 Alpha virt. eigenvalues --    1.49816   1.51066   1.51530   1.52304   1.52904
 Alpha virt. eigenvalues --    1.53695   1.54296   1.54366   1.55479   1.56443
 Alpha virt. eigenvalues --    1.56903   1.59419   1.59496   1.61459   1.62957
 Alpha virt. eigenvalues --    1.65046   1.66506   1.68237   1.68963   1.70420
 Alpha virt. eigenvalues --    1.71747   1.73040   1.73160   1.74391   1.76386
 Alpha virt. eigenvalues --    1.78339   1.79520   1.80586   1.81049   1.81920
 Alpha virt. eigenvalues --    1.83001   1.83345   1.84242   1.85024   1.85323
 Alpha virt. eigenvalues --    1.85339   1.85631   1.86589   1.87032   1.87363
 Alpha virt. eigenvalues --    1.87618   1.88310   1.88659   1.89396   1.90334
 Alpha virt. eigenvalues --    1.90545   1.91133   1.91682   1.91838   1.92851
 Alpha virt. eigenvalues --    1.93398   1.93688   1.94166   1.94725   1.95118
 Alpha virt. eigenvalues --    1.96009   1.97343   1.97781   1.97961   1.99108
 Alpha virt. eigenvalues --    1.99891   2.00564   2.00963   2.01484   2.01738
 Alpha virt. eigenvalues --    2.02258   2.02649   2.03201   2.03680   2.04198
 Alpha virt. eigenvalues --    2.05039   2.05188   2.05721   2.06246   2.07224
 Alpha virt. eigenvalues --    2.07598   2.08562   2.09031   2.09348   2.10330
 Alpha virt. eigenvalues --    2.11099   2.11599   2.12969   2.13542   2.14597
 Alpha virt. eigenvalues --    2.15070   2.15864   2.16495   2.17021   2.18154
 Alpha virt. eigenvalues --    2.18761   2.20732   2.21068   2.22209   2.22664
 Alpha virt. eigenvalues --    2.23508   2.24028   2.24671   2.25051   2.26779
 Alpha virt. eigenvalues --    2.26970   2.27948   2.28693   2.29282   2.29452
 Alpha virt. eigenvalues --    2.29930   2.30690   2.31395   2.31563   2.32288
 Alpha virt. eigenvalues --    2.32634   2.33636   2.34973   2.36003   2.36646
 Alpha virt. eigenvalues --    2.36769   2.37362   2.38311   2.39794   2.40360
 Alpha virt. eigenvalues --    2.41530   2.42066   2.42846   2.43768   2.45817
 Alpha virt. eigenvalues --    2.46656   2.46784   2.47754   2.48612   2.50822
 Alpha virt. eigenvalues --    2.53318   2.53785   2.54792   2.55743   2.56261
 Alpha virt. eigenvalues --    2.58580   2.59674   2.60701   2.62865   2.63372
 Alpha virt. eigenvalues --    2.64325   2.66056   2.66639   2.67771   2.68378
 Alpha virt. eigenvalues --    2.69264   2.69593   2.70591   2.71744   2.72085
 Alpha virt. eigenvalues --    2.73346   2.74765   2.75758   2.76393   2.79319
 Alpha virt. eigenvalues --    2.79351   2.80171   2.82418   2.84199   2.84715
 Alpha virt. eigenvalues --    2.85412   2.85577   2.86950   2.88386   2.88704
 Alpha virt. eigenvalues --    2.90570   2.92392   2.95492   2.96637   3.07427
 Alpha virt. eigenvalues --    3.09652   3.13110   3.21326   3.23929   3.26239
 Alpha virt. eigenvalues --    3.45889   3.47212   3.88017   3.93129   3.96030
 Alpha virt. eigenvalues --    3.98550   4.00244   4.07550   4.10130   4.11250
 Alpha virt. eigenvalues --    4.13968   4.16366   4.16839   4.17663   4.19748
 Alpha virt. eigenvalues --    4.21687   4.22579   4.25730   4.26849   4.30834
 Alpha virt. eigenvalues --    4.32278   4.33815   4.35220   4.36561   4.37449
 Alpha virt. eigenvalues --    4.40152   4.42373   4.43208   4.46288   4.47465
 Alpha virt. eigenvalues --    4.50802   4.51526   4.53141   4.56494   4.57736
 Alpha virt. eigenvalues --    4.69211   4.79396   4.82512
  Beta  occ. eigenvalues --  -90.13756 -90.11014 -19.64414 -19.64296 -19.62787
  Beta  occ. eigenvalues --  -19.62614 -14.84173 -14.83334 -14.76513 -14.75387
  Beta  occ. eigenvalues --  -10.64194 -10.63031 -10.61262 -10.60173 -10.59917
  Beta  occ. eigenvalues --  -10.59619 -10.59277 -10.59103 -10.58759 -10.58595
  Beta  occ. eigenvalues --  -10.58484 -10.58416 -10.58276 -10.57696 -10.57353
  Beta  occ. eigenvalues --  -10.57344 -10.56887 -10.56741 -10.56389 -10.56220
  Beta  occ. eigenvalues --  -10.56131 -10.56029 -10.55745 -10.55453 -10.55255
  Beta  occ. eigenvalues --  -10.54884  -8.45174  -8.43128  -6.37321  -6.37305
  Beta  occ. eigenvalues --   -6.37228  -6.35259  -6.35161  -6.34730  -1.22020
  Beta  occ. eigenvalues --   -1.20779  -1.15521  -1.14787  -1.10882  -1.10689
  Beta  occ. eigenvalues --   -1.01835  -1.01085  -0.96609  -0.96331  -0.94338
  Beta  occ. eigenvalues --   -0.93447  -0.90440  -0.88282  -0.86617  -0.86193
  Beta  occ. eigenvalues --   -0.85493  -0.85169  -0.83003  -0.82710  -0.81843
  Beta  occ. eigenvalues --   -0.79413  -0.77730  -0.74364  -0.73695  -0.70365
  Beta  occ. eigenvalues --   -0.70189  -0.69353  -0.68605  -0.67758  -0.67451
  Beta  occ. eigenvalues --   -0.66035  -0.65829  -0.65687  -0.60897  -0.60229
  Beta  occ. eigenvalues --   -0.59735  -0.58977  -0.58518  -0.58414  -0.57659
  Beta  occ. eigenvalues --   -0.57074  -0.56890  -0.56239  -0.55654  -0.55324
  Beta  occ. eigenvalues --   -0.54648  -0.54205  -0.53197  -0.52626  -0.52262
  Beta  occ. eigenvalues --   -0.51876  -0.51619  -0.51497  -0.51449  -0.50863
  Beta  occ. eigenvalues --   -0.50676  -0.50002  -0.49572  -0.49317  -0.48943
  Beta  occ. eigenvalues --   -0.48756  -0.48438  -0.48183  -0.47213  -0.46187
  Beta  occ. eigenvalues --   -0.44972  -0.44387  -0.44177  -0.43875  -0.43533
  Beta  occ. eigenvalues --   -0.43394  -0.43119  -0.42558  -0.42213  -0.42080
  Beta  occ. eigenvalues --   -0.41244  -0.40850  -0.40310  -0.39742  -0.39056
  Beta  occ. eigenvalues --   -0.38608  -0.38406  -0.37998  -0.37479  -0.37201
  Beta  occ. eigenvalues --   -0.36880  -0.36246  -0.35865  -0.34947  -0.34720
  Beta  occ. eigenvalues --   -0.33361  -0.29470  -0.29069  -0.28499  -0.27900
  Beta virt. eigenvalues --   -0.08979  -0.01071   0.00658   0.03859   0.04797
  Beta virt. eigenvalues --    0.05129   0.06486   0.07381   0.07748   0.10181
  Beta virt. eigenvalues --    0.10973   0.11422   0.11917   0.12225   0.12585
  Beta virt. eigenvalues --    0.12910   0.13079   0.13448   0.13677   0.13905
  Beta virt. eigenvalues --    0.14749   0.15050   0.15379   0.15537   0.15797
  Beta virt. eigenvalues --    0.16142   0.16334   0.17287   0.18271   0.18466
  Beta virt. eigenvalues --    0.18898   0.19280   0.19529   0.19883   0.20088
  Beta virt. eigenvalues --    0.20364   0.20787   0.20963   0.21385   0.21480
  Beta virt. eigenvalues --    0.21754   0.21913   0.22024   0.22265   0.22630
  Beta virt. eigenvalues --    0.23205   0.23588   0.23812   0.24000   0.24492
  Beta virt. eigenvalues --    0.25049   0.25792   0.26575   0.26950   0.27705
  Beta virt. eigenvalues --    0.28193   0.28452   0.29261   0.29776   0.30298
  Beta virt. eigenvalues --    0.30494   0.31191   0.31523   0.31712   0.32448
  Beta virt. eigenvalues --    0.33786   0.34030   0.35586   0.36496   0.37249
  Beta virt. eigenvalues --    0.37873   0.38741   0.39392   0.41089   0.41357
  Beta virt. eigenvalues --    0.42127   0.42842   0.43584   0.44020   0.45130
  Beta virt. eigenvalues --    0.46560   0.47650   0.48103   0.48610   0.49551
  Beta virt. eigenvalues --    0.50526   0.50640   0.51984   0.52534   0.53761
  Beta virt. eigenvalues --    0.54140   0.54664   0.55112   0.55457   0.56240
  Beta virt. eigenvalues --    0.56804   0.57477   0.57592   0.58023   0.58149
  Beta virt. eigenvalues --    0.58791   0.59077   0.59827   0.59932   0.60703
  Beta virt. eigenvalues --    0.61439   0.61711   0.62078   0.63058   0.63673
  Beta virt. eigenvalues --    0.64010   0.64433   0.64814   0.65154   0.65202
  Beta virt. eigenvalues --    0.65444   0.65713   0.66728   0.66792   0.67391
  Beta virt. eigenvalues --    0.67879   0.68900   0.69247   0.69745   0.70629
  Beta virt. eigenvalues --    0.70843   0.71181   0.71845   0.71960   0.72364
  Beta virt. eigenvalues --    0.72818   0.73632   0.73780   0.74222   0.74446
  Beta virt. eigenvalues --    0.75036   0.75326   0.76052   0.76692   0.77482
  Beta virt. eigenvalues --    0.77594   0.79359   0.80359   0.81201   0.81757
  Beta virt. eigenvalues --    0.82325   0.82794   0.83337   0.84275   0.84317
  Beta virt. eigenvalues --    0.85064   0.85754   0.86118   0.86514   0.86794
  Beta virt. eigenvalues --    0.87373   0.87700   0.88363   0.88698   0.88785
  Beta virt. eigenvalues --    0.89398   0.89640   0.89999   0.90131   0.90618
  Beta virt. eigenvalues --    0.90952   0.91205   0.91657   0.91793   0.92588
  Beta virt. eigenvalues --    0.93152   0.93339   0.93675   0.94505   0.94650
  Beta virt. eigenvalues --    0.94754   0.95286   0.95549   0.95778   0.96117
  Beta virt. eigenvalues --    0.96576   0.96877   0.97418   0.97673   0.97893
  Beta virt. eigenvalues --    0.98268   0.99122   0.99539   0.99788   1.00294
  Beta virt. eigenvalues --    1.00868   1.01099   1.01343   1.02074   1.02260
  Beta virt. eigenvalues --    1.02758   1.03125   1.03588   1.03887   1.04541
  Beta virt. eigenvalues --    1.05130   1.05288   1.06162   1.07109   1.07391
  Beta virt. eigenvalues --    1.08161   1.08641   1.09454   1.10217   1.10947
  Beta virt. eigenvalues --    1.11226   1.12447   1.13630   1.14743   1.15263
  Beta virt. eigenvalues --    1.16197   1.16792   1.17480   1.18286   1.18545
  Beta virt. eigenvalues --    1.18943   1.19269   1.19833   1.21336   1.21684
  Beta virt. eigenvalues --    1.22573   1.23052   1.23564   1.24288   1.25082
  Beta virt. eigenvalues --    1.25836   1.26043   1.26956   1.27893   1.29228
  Beta virt. eigenvalues --    1.29497   1.30127   1.31048   1.31800   1.32722
  Beta virt. eigenvalues --    1.33674   1.35067   1.35793   1.36046   1.37459
  Beta virt. eigenvalues --    1.37573   1.38593   1.39345   1.40192   1.40687
  Beta virt. eigenvalues --    1.41767   1.42330   1.43187   1.44236   1.44783
  Beta virt. eigenvalues --    1.45497   1.46272   1.46605   1.47659   1.48842
  Beta virt. eigenvalues --    1.49293   1.50053   1.51121   1.51544   1.52437
  Beta virt. eigenvalues --    1.53004   1.53718   1.54312   1.54932   1.55587
  Beta virt. eigenvalues --    1.56512   1.56962   1.59541   1.59614   1.61640
  Beta virt. eigenvalues --    1.63107   1.65270   1.66827   1.68411   1.69050
  Beta virt. eigenvalues --    1.70567   1.71858   1.73053   1.73177   1.74393
  Beta virt. eigenvalues --    1.76442   1.78380   1.79534   1.80539   1.81104
  Beta virt. eigenvalues --    1.82060   1.83088   1.83405   1.84443   1.85195
  Beta virt. eigenvalues --    1.85383   1.85497   1.85770   1.86814   1.87256
  Beta virt. eigenvalues --    1.87535   1.87728   1.88551   1.88820   1.89694
  Beta virt. eigenvalues --    1.90497   1.90688   1.91320   1.91853   1.92076
  Beta virt. eigenvalues --    1.92952   1.93635   1.93769   1.94493   1.94875
  Beta virt. eigenvalues --    1.95332   1.96176   1.97486   1.97897   1.98011
  Beta virt. eigenvalues --    1.99148   2.00078   2.00601   2.01029   2.01659
  Beta virt. eigenvalues --    2.01831   2.02331   2.02686   2.03233   2.03790
  Beta virt. eigenvalues --    2.04231   2.05027   2.05231   2.05715   2.06454
  Beta virt. eigenvalues --    2.07224   2.07696   2.08736   2.09126   2.09509
  Beta virt. eigenvalues --    2.10612   2.11434   2.11836   2.13139   2.13570
  Beta virt. eigenvalues --    2.14735   2.15316   2.15923   2.16606   2.17271
  Beta virt. eigenvalues --    2.18246   2.18856   2.20854   2.21243   2.22227
  Beta virt. eigenvalues --    2.22717   2.23603   2.24145   2.24885   2.25165
  Beta virt. eigenvalues --    2.26802   2.27101   2.27982   2.28700   2.29360
  Beta virt. eigenvalues --    2.29506   2.29963   2.30717   2.31571   2.31652
  Beta virt. eigenvalues --    2.32531   2.32718   2.33651   2.35032   2.36036
  Beta virt. eigenvalues --    2.36682   2.36791   2.37454   2.38376   2.39912
  Beta virt. eigenvalues --    2.40535   2.41572   2.42182   2.42881   2.43868
  Beta virt. eigenvalues --    2.45874   2.46755   2.47359   2.47905   2.48742
  Beta virt. eigenvalues --    2.50837   2.53440   2.53823   2.54869   2.56264
  Beta virt. eigenvalues --    2.56840   2.58593   2.59741   2.60714   2.62868
  Beta virt. eigenvalues --    2.63376   2.64494   2.66170   2.66651   2.67779
  Beta virt. eigenvalues --    2.68404   2.69309   2.69605   2.70611   2.71760
  Beta virt. eigenvalues --    2.72136   2.73416   2.74776   2.76412   2.77965
  Beta virt. eigenvalues --    2.79343   2.79756   2.80240   2.82492   2.84256
  Beta virt. eigenvalues --    2.85376   2.85571   2.86514   2.86974   2.88489
  Beta virt. eigenvalues --    2.88870   2.90645   2.92397   2.95498   2.96639
  Beta virt. eigenvalues --    3.07431   3.09656   3.13115   3.21332   3.23931
  Beta virt. eigenvalues --    3.26241   3.45890   3.47213   3.88537   3.93290
  Beta virt. eigenvalues --    3.96093   4.00245   4.00760   4.07613   4.10139
  Beta virt. eigenvalues --    4.11259   4.13996   4.16490   4.16857   4.18062
  Beta virt. eigenvalues --    4.19878   4.22112   4.22640   4.25813   4.26969
  Beta virt. eigenvalues --    4.30848   4.32335   4.33104   4.35290   4.36739
  Beta virt. eigenvalues --    4.37448   4.40261   4.42564   4.43350   4.46782
  Beta virt. eigenvalues --    4.47511   4.51185   4.51594   4.53451   4.56590
  Beta virt. eigenvalues --    4.58025   4.69248   4.79397   4.82511
          Condensed to atoms (all electrons):
          Atomic-Atomic Spin Densities.
 Mulliken charges and spin densities:
               1          2
     1  C   -0.172733   0.000005
     2  C    0.168221   0.000189
     3  C    0.278737  -0.000051
     4  C   -0.173115   0.000070
     5  C   -0.183998   0.000036
     6  C   -0.180477   0.000096
     7  H    0.189630  -0.000001
     8  H    0.168756  -0.000003
     9  H    0.168891  -0.000003
    10  H    0.169610  -0.000003
    11  N   -0.472324   0.000086
    12  N   -0.546575   0.000421
    13  C   -0.377449   0.000932
    14  H    0.197780   0.000019
    15  H    0.261553  -0.000012
    16  H    0.189142  -0.000125
    17  C    0.202526   0.001240
    18  S    1.172358   0.002549
    19  O   -0.520003   0.001622
    20  O   -0.573578  -0.000060
    21  C   -0.518362   0.013112
    22  C   -0.366772  -0.040401
    23  H    0.226403   0.001189
    24  H    0.236048  -0.000762
    25  C   -0.048343   0.546626
    26  H    0.218041   0.000978
    27  H    0.216092   0.020886
    28  C   -0.501350  -0.189074
    29  H    0.189552  -0.027587
    30  H    0.204930   0.011241
    31  H    0.224217   0.015105
    32  S    1.048947   0.256478
    33  C   -0.530142   0.087687
    34  O   -0.590947   0.096950
    35  O   -0.524965   0.195684
    36  C   -0.310337   0.005874
    37  H    0.229981  -0.003820
    38  H    0.222242  -0.004537
    39  H    0.192342  -0.000522
    40  C   -0.190616   0.003583
    41  H    0.184851   0.002382
[...]
 001072,0.00000752,-0.00000913,0.00000190,-0.00000469,0.00000342,0.0000
 1340,-0.00000557,-0.00000365,0.00000909,0.00000465,0.00000323,-0.00000
 091,0.00000134,0.00000321,-0.00000219,0.00000599,0.00000182,0.00000021
 ,0.00000129,0.00000116,0.00000056,0.00000173,0.00001407,0.00001671,0.0
 0001998,-0.00001166,0.00002079,-0.00003818,-0.00000743,-0.00000475,0.0
 0002290,0.00000449,0.00000150,0.00000011,-0.00000750,-0.00000248,-0.00
 000818,-0.00000752,-0.00002172,0.00000371,0.00005233,-0.00003820,0.000
 03106,-0.00014116,-0.00012827,-0.00001900,0.00004899,0.00004067,0.0000
 0351,0.00005461,0.00004902,0.00001081,0.00002299,0.00005599,-0.0000412
 8,-0.00006233,-0.00008790,0.00008842,-0.00000274,-0.00001745,0.0000521
 8,-0.00003054,-0.00020318,0.00003234,-0.00004303,0.00022858,-0.0003663
 3,0.00004658,0.00001371,0.00002729,-0.00002999,0.00004081,-0.00002680,
 0.00000169,-0.00003838,0.00027837,0.00011080,0.00012582,-0.00028011,0.
 00001632,-0.00000509,-0.00002881,-0.00003606,-0.00002096,0.00003974,-0
 .00006796,-0.00041786,-0.00020174,0.00005234,0.00006432,0.00001514,0.0
 0011987,0.00026257,0.00001423,-0.00001643,0.00008942,0.00009537,-0.000
 03207,-0.00002197,-0.00000061,-0.00000982,-0.00003426,-0.00000843,-0.0
 0000005,0.00001073,-0.00000944,0.00000354,0.00002182,-0.00000346,-0.00
 004587,-0.00010032,0.00013034,0.00000136,-0.00000071,0.00001171,-0.000
 24190,-0.00010324,-0.00051415,0.00002570,-0.00000482,-0.00003029,0.000
 03414,-0.00000012,0.00000517,-0.00039283,0.00294876,0.00037272,-0.0003
 0734,-0.00055591,-0.00094712,0.00038104,-0.00004242,0.00014283,-0.0000
 1089,-0.00007427,-0.00007376,-0.00001295,-0.00005099,-0.00008176,-0.00
 003025,0.00002318,0.00003444,-0.00000603,0.00002194,-0.00000941,-0.000
 00853,-0.00000039,0.00000669,-0.00000915,-0.00000347,-0.00000006,0.003
 23832,-0.00367299,0.00078994,-0.01472289,-0.01304188,-0.01024142,0.000
 00988,0.00000013,-0.00000593,0.00000466,-0.00000167,0.00000265,0.00000
 697,-0.00000055,-0.00000013,0.00084874,0.00021988,-0.00052653,-0.09382
 930,-0.11780117,-0.17573190,-0.00000158,0.00000109,0.00000155,0.000001
 95,-0.00000245,0.00000006,-0.00000086,0.00000316,-0.00000167,0.0016637
 0,-0.00285396,0.00369500,-0.00022875,0.00059460,-0.00047197,0.00236890
 ,0.00268891,0.00581475,0.10175700,0.12936171,0.17893877,0.00008073,0.0
 0003383,0.00005826,0.00007590,0.00008528,0.00020790,0.00014780,0.00009
 785,-0.00008903,0.00000440,0.00001989,0.00002817,-0.00002020,-0.000009
 58,0.00001099,-0.00000751,-0.00002584,0.00000748,-0.00002513,-0.000024
 63,0.00003132,-0.00000256,0.00000169,-0.00000585,-0.00000548,-0.000001
 65,0.00000182,0.00000543,0.00000099,0.00000358,-0.00053617,0.00002725,
 -0.00093412,0.00006572,-0.00021178,-0.00013129,-0.00002135,-0.00002155
 ,0.00004318,0.00000321,-0.00000030,-0.00000317,0.00000018,0.00000585,-
 0.00000079,0.00000793,0.00001017,-0.00001993,-0.00020034,0.00010878,0.
 00032811,-0.00018340,-0.00025439,0.00028894,-0.00002120,0.00001786,-0.
 00007131,0.00005932,0.00004306,-0.00004726,0.00003035,-0.00001536,0.00
 003660,0.00001470,-0.00001548,0.00000686,-0.00000545,0.00001430,-0.000
 01587,-0.00018724,-0.00001607,-0.00002511,-0.00002944,0.00001981,-0.00
 002531,0.00000099,-0.00000008,0.00000163,-0.00000553,-0.00000588,-0.00
 000017,0.00001931,-0.00000918,0.00000601,0.00000947,0.00000567,-0.0000
 0379,0.00000391,0.00000186,-0.00000237,-0.00000286,-0.00000059,0.00000
 372,-0.00000289,0.00003522,-0.00001808,0.00000236,-0.00000615,-0.00000
 623,0.00001340,-0.00003368,0.00002050,0.00000044,-0.00001057,0.0000139
 3,0.00001082,0.00001240,-0.00000589,0.00000529,0.00000446,-0.00000577,
 0.00000088,-0.00000283,0.00000221,-0.00000287,-0.00000397,0.00000188,-
 0.00001841,-0.00000339,-0.00007894,0.00000251,0.00000032,-0.00000091,0
 .00028143,0.00041066,0.00044323,-0.00000753,-0.00001110,0.00000362,-0.
 00002546,0.00000226,0.00000870,0.00010086,-0.00017836,-0.00024524,-0.0
 0075241,-0.00034455,-0.00001716,-0.00004282,-0.00007072,-0.00009015,-0
 .00000675,0.00002200,0.00002051,-0.00000336,0.00001747,0.00002009,0.00
 000564,-0.00000460,-0.00002750,0.00000302,-0.00000353,0.00000204,0.000
 00404,0.00000051,-0.00000142,0.00000727,0.00000382,-0.00000026,0.00092
 576,0.00106162,0.00202993,0.00041196,0.00008871,-0.00015622,-0.0000015
 8,-0.00000019,0.00000031,-0.00000085,-0.00000029,0.00000064,-0.0000054
 4,-0.00000285,0.00000092,-0.01001236,-0.00162598,-0.00002508,0.0006426
 2,-0.00198130,-0.00178793,0.00000113,0.00000032,0.00000043,-0.00000214
 ,0.00000319,0.00000031,0.00000131,0.00000043,-0.00000080,-0.34883381,-
 0.02408141,0.02426280,0.00042598,0.00024895,-0.00044318,-0.00966313,0.
 00032102,0.00270410,-0.00050204,0.00005127,0.00018167,0.36715367,0.000
 13338,-0.00001754,0.00004275,0.00007309,0.00035623,-0.00007325,0.00019
 459,-0.00009902,-0.00019843,0.00000369,0.00006855,0.00004379,-0.000048
 04,-0.00005460,0.00002149,0.00003688,-0.00012011,0.00000038,-0.0001464
 2,0.00001393,0.00000221,0.00000355,-0.00000779,-0.00000116,-0.00001106
 ,-0.00000100,0.00000265,-0.00000667,-0.00001192,-0.00000962,-0.0000873
 8,-0.00010291,-0.00014503,0.00013949,-0.00019621,0.00003639,0.00001137
 ,-0.00002227,-0.00002321,0.00000242,-0.00000049,-0.00000942,-0.0000148
 6,0.00001071,0.00001919,-0.00000492,0.00000850,-0.00000710,-0.00041628
 ,-0.00007981,0.00017945,-0.00060662,0.00014920,0.00101635,0.00025226,0
 .00019439,-0.00068438,0.00012462,-0.00002582,-0.00023574,0.00011108,-0
 .00009357,0.00005742,0.00001059,-0.00002870,-0.00001059,0.00002128,0.0
 0002268,-0.00001353,-0.00014700,0.00016784,-0.00017974,-0.00004751,0.0
 0003421,-0.00003611,0.00000755,0.00000590,0.00000353,-0.00001173,-0.00
 001436,0.00000002,0.00002848,-0.00001077,0.00000857,0.00001197,0.00000
 347,-0.00000323,0.00000647,0.00000149,-0.00000379,-0.00000423,-0.00000
 095,0.00000500,-0.00005957,0.00000831,0.00001625,-0.00000230,-0.000007
 40,-0.00000914,0.00003929,0.00000327,-0.00001419,0.00002027,-0.0000046
 6,-0.00001524,-0.00005750,0.00000363,0.00001676,-0.00000007,0.00000046
 ,-0.00000357,0.00000177,-0.00000071,0.00000304,0.00000088,-0.00000812,
 0.00001199,0.00008593,-0.00014980,0.00028620,-0.00000426,0.00000633,-0
 .00000283,0.00005522,-0.00045607,-0.00010343,0.00002142,0.00001455,0.0
 0000018,0.00007448,-0.00001592,-0.00003926,-0.00008884,0.00004908,0.00
 027817,0.00061948,0.00120092,-0.00033419,-0.00001195,0.00009457,0.0000
 7863,-0.00000597,-0.00000070,0.00000415,0.00001948,-0.00000732,-0.0000
 1088,-0.00000959,0.00003155,-0.00000923,-0.00000152,-0.00000430,-0.000
 00018,-0.00000255,0.00000064,0.00000110,-0.00000506,-0.00001282,-0.000
 00192,0.00070284,0.00279330,-0.00565666,0.00041358,-0.00093416,-0.0002
 6095,-0.00000236,0.00000015,0.00000199,-0.00000042,0.00000086,-0.00000
 151,0.00000624,0.00000327,-0.00000245,0.01579031,0.00439107,-0.0011445
 2,-0.00184243,0.00162055,-0.00550194,-0.00000026,-0.00000049,-0.000000
 37,0.00000083,-0.00000316,-0.00000054,-0.00000130,-0.00000194,0.000001
 67,-0.02286649,-0.04676710,-0.00938919,0.00033357,-0.00242386,0.002783
 73,-0.01853196,0.00177827,0.00298172,-0.00098747,0.00006620,0.00007050
 ,0.02597839,0.04047351,0.00000510,-0.00002449,0.00013995,-0.00008073,-
 0.00073610,-0.00038071,-0.00012060,0.00006289,0.00001350,-0.00003107,-
 0.00001796,0.00001071,0.00001148,0.00006203,-0.00000230,0.00001260,0.0
 0003552,0.00001120,-0.00006521,-0.00003756,0.00001441,-0.00000901,0.00
 001594,0.00003231,0.00000064,0.00001743,0.00001216,0.00000409,0.000031
 72,0.00001125,-0.00002378,-0.00057294,0.00023846,-0.00068245,0.0002043
 5,0.00049382,0.00010775,0.00011686,-0.00013031,-0.00002842,-0.00000026
 ,0.00003318,-0.00000632,-0.00000766,0.00000572,-0.00002775,-0.00001408
 ,0.00007509,0.00110363,0.00037361,-0.00083681,0.00052182,0.00085920,-0
 .00012754,-0.00009142,-0.00036606,0.00002307,-0.00014249,-0.00024898,0
 .00009131,-0.00006736,-0.00006994,-0.00004307,-0.00007556,0.00006109,-
 0.00001717,0.00002963,-0.00004556,0.00004675,0.00002826,-0.00013388,0.
 00006411,0.00006110,-0.00003546,0.00000954,0.00001189,0.00000378,-0.00
 000143,0.00000629,0.00000375,-0.00000126,-0.00004854,0.00001486,0.0000
 1967,-0.00000618,-0.00000235,-0.00001950,-0.00000792,-0.00000296,0.000
 00096,0.00000317,0.00000027,-0.00000219,0.00007737,-0.00010960,0.00002
 389,0.00000290,0.00001221,0.00001356,-0.00007739,0.00006980,-0.0000518
 6,-0.00002611,0.00003111,-0.00001783,0.00006346,-0.00004794,0.00000231
 ,-0.00001382,-0.00001667,0.00000608,-0.00000477,0.00000994,-0.00001065
 ,0.00000978,0.00002673,-0.00003127,-0.00002974,0.00021898,-0.00005760,
 -0.00000153,-0.00000466,0.00000238,-0.00008133,-0.00030034,-0.00070912
 ,0.00000969,0.00002682,0.00000733,0.00001843,0.00000133,0.00000635,-0.
 00010670,0.00036449,0.00032175,0.00158791,0.00000868,0.00080869,0.0001
 1865,0.00006702,0.00021689,0.00002059,-0.00003455,-0.00004271,-0.00000
 056,-0.00001926,-0.00002792,-0.00001004,-0.00000031,0.00005538,-0.0000
 0580,0.00001555,-0.00000249,-0.00000500,-0.00000323,-0.00000594,-0.000
 01317,-0.00000505,-0.00000583,0.00203685,-0.00582029,-0.00098251,0.000
 17593,-0.00033240,-0.00130978,0.00000691,0.00000126,-0.00000294,0.0000
 0017,-0.00000071,-0.00000021,0.00000934,0.00000241,0.00000347,0.023801
 37,0.00275751,0.00152887,-0.00132020,-0.00498751,-0.00034309,-0.000002
 04,-0.00000031,-0.00000208,0.00000306,-0.00000496,-0.00000073,-0.00000
 109,0.00000153,-0.00000031,0.02212309,-0.00938854,-0.05180202,-0.00083
 431,0.00261761,-0.00109428,-0.02073213,-0.00077383,0.00530479,-0.00099
 599,-0.00017020,0.00022745,-0.02622773,0.01413234,0.04888896,0.0000117
 1,0.00001324,-0.00001009,-0.00000587,-0.00002034,-0.00001284,-0.000020
 30,-0.00000184,0.00000354,-0.00000248,0.00001146,0.00000798,-0.0000003
 0,0.00000235,0.00000483,-0.00000031,0.00000099,0.00000136,-0.00000260,
 -0.00000556,-0.00000094,-0.00000091,-0.00000018,-0.00000137,-0.0000010
 6,0.00000002,0.00000061,0.00000077,0.00000002,-0.00000032,-0.00000795,
 -0.00000866,0.00002276,-0.00001314,0.00000663,0.00001133,-0.00000830,0
 .00000119,0.00000389,0.00000042,0.00000037,0.00000047,0.00000235,0.000
 00017,-0.00000201,-0.00000246,-0.00000065,-0.00000011,0.00003248,0.000
 00887,-0.00000078,0.00008199,-0.00003929,-0.00006317,-0.00005346,-0.00
 002115,0.00008713,-0.00001553,-0.00000436,0.00003576,0.00002910,0.0000
 1146,0.00002405,-0.00001636,0.00002973,0.00000462,-0.00002266,0.000000
 70,-0.00001665,-0.00002882,0.00003299,0.00006726,-0.00004065,-0.000045
 49,0.00001191,0.00000790,-0.00000530,-0.00000669,0.00001942,-0.0000183
 3,0.00001542,0.00003392,-0.00001208,-0.00003917,-0.00001561,0.00004409
 ,0.00002058,0.00000023,0.00000956,0.00000443,0.00000144,0.00000460,0.0
 0000221,0.00000252,0.00013493,-0.00002857,-0.00000993,-0.00001558,-0.0
 0001442,-0.00000202,-0.00006862,0.00003795,0.00000144,-0.00003329,0.00
 001971,-0.00002184,0.00004199,-0.00000878,0.00002590,0.00002773,-0.000
 01309,0.00000121,-0.00000551,0.00001366,-0.00001247,-0.00001924,0.0000
 2215,0.00011552,0.00013406,0.00007239,0.00000045,-0.00000102,0.0000051
 9,-0.00072702,-0.00017499,-0.00023437,-0.00008197,-0.00003689,0.000021
 93,0.00001439,-0.00000522,-0.00000092,-0.00009349,0.00089564,0.0015365
 2,0.00053407,0.00013806,0.00004248,-0.00003259,-0.00001950,-0.00008257
 ,0.00000437,0.00000818,0.00001938,-0.00000295,0.00001576,0.00002620,0.
 00001510,0.00000405,0.00004023,0.00000330,-0.00000785,-0.00000307,0.00
 000137,0.00001075,0.00000997,0.00002558,0.00003113,0.00001335,-0.00112
 651,-0.00036691,-0.00031693,-0.00517104,-0.00264111,-0.00082042,-0.000
 00243,-0.00000178,0.00000121,0.00000004,-0.00000192,-0.00000131,-0.000
 02046,-0.00000491,-0.00000089,-0.00107239,-0.00268957,-0.00199362,-0.0
 1105892,0.01584327,0.02389340,0.00000209,0.00000015,0.00000042,-0.0000
 0506,0.00000988,0.00000159,0.00000319,0.00000077,-0.00000085,0.0119378
 7,-0.00805575,-0.01292497,0.00050012,-0.00048686,-0.00062704,-0.132795
 66,0.06618449,0.10820551,0.00101596,0.00034034,-0.00070991,0.00060790,
 0.00069780,0.00003132,0.13746137,0.00002827,0.00003418,-0.00002278,-0.
 00000858,-0.00001827,-0.00000556,-0.00001494,0.00001119,-0.00001758,-0
 .00001607,0.00002794,0.00001964,-0.00000717,-0.00000884,0.00000830,0.0
 0000812,-0.00000744,-0.00000942,-0.00000471,-0.00000105,-0.00000056,0.
 00000226,0.00000002,0.00000248,-0.00000070,-0.00000314,-0.00000065,-0.
 00000255,-0.00000646,-0.00000246,-0.00000658,-0.00002549,0.00003426,-0
 .00005187,-0.00001635,0.00001641,0.00000023,-0.00000050,0.00000965,-0.
 00000279,-0.00000360,-0.00000180,-0.00000016,0.00000115,0.00000610,-0.
 00000468,0.00000047,0.00000895,0.00004838,-0.00000863,-0.00003854,0.00
 008901,0.00004903,0.00015207,-0.00005292,-0.00002695,-0.00010121,-0.00
 002883,0.00000640,-0.00006036,0.00005199,-0.00010808,0.00000270,-0.000
 02544,0.00001367,0.,-0.00002184,0.00002074,-0.00003669,-0.00007941,0.0
 0019181,-0.00005028,-0.00004276,-0.00001304,0.00000785,0.00001414,0.00
 000161,-0.00000815,0.00001081,-0.00002561,0.00002103,0.00002228,-0.000
 00594,-0.00001992,-0.00001602,0.00001364,-0.00000028,0.00000264,0.0000
 0380,0.00000052,0.00000017,0.00000157,0.00000109,-0.00005827,0.0000285
 1,0.00004114,0.00000137,-0.00001076,-0.00001001,0.00003628,-0.00000639
 ,-0.00001348,0.00002252,-0.00000631,-0.00002857,-0.00003482,0.00002955
 ,0.00001275,-0.00000454,-0.00000301,0.00000023,0.00000267,-0.00000218,
 0.00000055,-0.00000151,-0.00001137,0.00000880,-0.00000071,-0.00016699,
 0.00014581,-0.00000332,0.00000133,0.00000259,0.00003908,-0.00035719,0.
 00030026,0.00006155,-0.00000241,-0.00001295,0.00001018,0.00000814,-0.0
 0000614,-0.00014769,0.00092846,-0.00032705,-0.00001815,-0.00010079,0.0
 0012533,0.00004982,-0.00000404,0.00001327,0.00004898,-0.00000811,0.000
 00646,-0.00001688,-0.00000016,-0.00001620,-0.00001611,0.00001769,0.000
 06837,0.00000062,0.00000185,-0.00000420,-0.00000330,0.00000147,0.00000
 447,-0.00001139,-0.00001379,-0.00000814,-0.00052824,-0.00024251,0.0003
 0919,-0.00203372,0.00490530,-0.00318647,0.00000096,-0.00000079,0.00000
 092,0.00000393,0.00000106,0.00000212,0.00001103,0.00000280,-0.00000092
 ,-0.00298825,0.00212107,-0.00411528,-0.00286480,0.00466516,0.00409921,
 -0.00000122,0.00000049,0.00000113,0.00000268,-0.00000491,-0.00000081,-
 0.00000263,-0.00000135,0.00000066,0.01043064,-0.00562772,-0.01202750,0
 .00044721,-0.00012742,-0.00068689,0.06657638,-0.10783290,-0.11027338,0
 .00075642,-0.00270880,0.00233778,0.00022066,-0.00189119,0.00210798,-0.
 06987770,0.10632038,0.00000184,0.00001180,-0.00001520,0.00000392,0.000
 01448,-0.00000928,-0.00002716,0.00001605,0.00004435,-0.00001133,0.0000
 1183,-0.00000362,0.00000538,0.00002273,-0.00000128,-0.00000837,0.00001
 881,0.00001150,0.00000495,-0.00000643,0.00000168,0.00000359,-0.0000025
 1,0.00000650,0.00000218,0.00000034,0.00000158,0.00000234,-0.00000034,0
 .00000191,-0.00003778,0.00006049,-0.00003426,0.00000202,0.00005391,-0.
 00001300,0.00000398,-0.00000473,0.00002255,0.00000170,0.00000348,0.000
 00101,0.00000335,-0.00000686,-0.00001573,-0.00000128,-0.00000991,0.000
 00120,-0.00003828,-0.00004541,0.00004021,0.00026196,-0.00043207,-0.000
 61741,-0.00009438,0.00010730,0.00047516,-0.00004628,0.00007115,0.00015
 274,-0.00007059,0.00024729,0.00000680,0.00001800,-0.00000949,-0.000038
 31,0.00000453,-0.00006149,0.00008964,0.00019041,-0.00039093,-0.0000562
 5,0.00008604,0.00002967,-0.00000376,-0.00001620,0.00001117,0.00001282,
 -0.00000453,0.00006334,-0.00003046,-0.00005572,0.00001843,0.00004004,0
 .00001749,-0.00003022,-0.00000230,-0.00000624,-0.00001034,-0.00000020,
 0.00000099,-0.00000383,-0.00000376,0.00002468,-0.00015373,-0.00001998,
 0.00001197,0.00002371,0.00001758,-0.00000867,0.00009897,-0.00000801,-0
 .00001461,0.00003892,0.00000864,0.00002679,-0.00004346,-0.00001627,-0.
 00001179,-0.00001330,0.00000692,-0.00000236,0.00000601,-0.00000851,0.0
 0000984,0.00002041,-0.00001623,-0.00001978,0.00014855,-0.00006918,0.00
 000006,-0.00000285,0.00000154,0.00014045,0.00049033,0.00002006,-0.0000
 3164,0.00001284,-0.00000019,0.00000232,-0.00000320,0.00000024,0.000301
 60,-0.00070863,0.00019693,-0.00013629,0.00010614,-0.00008311,-0.000060
 63,0.00005279,-0.00000445,0.00000337,-0.00000683,-0.00000931,0.0000140
 5,-0.00000920,0.00000555,0.00002098,-0.00002073,0.00002687,-0.00000540
 ,0.00000591,-0.00000075,-0.00000163,-0.00000195,0.00000285,-0.00000432
 ,0.00000572,0.00000638,-0.00087388,0.00019138,0.00013251,0.00012739,-0
 .00274281,0.00396377,0.00000327,0.00000115,-0.00000222,0.00000060,-0.0
 0000066,-0.00000053,0.00000054,0.00000110,0.00000033,-0.00262131,-0.00
 438103,0.00043969,-0.00049927,-0.00023977,0.00183613,-0.00000159,-0.00
 000019,0.00000007,0.00000304,-0.00000144,-0.00000013,-0.00000099,0.000
 00136,-0.00000089,0.01169286,-0.00766225,-0.01091562,0.00070760,-0.000
 57066,-0.00049478,0.10778615,-0.11016483,-0.20372552,-0.00010259,0.002
 53136,-0.00123567,-0.00026855,0.00202895,-0.00070189,-0.11640881,0.121
 21419,0.21058228\\-0.00000039,0.00000045,-0.00000025,-0.00000159,0.000
 00113,-0.00000147,-0.00000190,0.00000073,-0.00000183,-0.00000036,-0.00
 000039,0.,-0.00000002,0.00000053,-0.00000020,-0.00000041,0.00000058,0.
 00000023,-0.00000047,0.00000097,-0.00000038,0.00000006,-0.00000024,0.0
 0000008,-0.00000025,0.00000016,0.00000029,-0.00000057,0.00000071,0.000
 00003,-0.00000152,0.00000065,-0.00000147,-0.00000349,0.00000210,-0.000
 00316,0.00000288,-0.00000127,0.00000114,0.00000106,-0.00000133,-0.0000
 0004,0.00000013,-0.00000082,-0.00000093,0.00000144,0.00000075,0.000000
 53,0.00000594,-0.00000003,0.00000132,0.00000042,0.00000213,-0.00000201
 ,0.00000005,0.00000169,-0.00000104,0.00000011,0.00000050,-0.00000135,-
 0.00000751,-0.00000604,0.00000136,0.00000023,0.00000037,-0.00000585,-0
 .00000208,-0.00000820,-0.00000669,-0.00000012,0.00000144,-0.00000296,0
 .00000551,0.00000204,0.00000846,0.00000172,0.00000021,-0.00000116,0.00
 000067,-0.00000135,0.00000042,0.00000077,0.00000322,-0.00000363,0.0000
 0024,0.00000042,0.00000077,0.00000154,-0.00000205,-0.00000250,-0.00000
 037,0.00000074,0.00000023,0.00000229,-0.00002241,-0.00000660,-0.000001
 19,-0.00000217,-0.00000476,-0.00000459,0.00002559,0.00001271,0.0000037
 7,0.00000267,0.00000189,0.00000509,-0.00000529,-0.00000770,-0.00000136
 ,0.,-0.00000010,0.00000090,-0.00000069,0.00000175,-0.00000003,-0.00000
 096,-0.00000071,0.00000012,0.00000849,0.00000842,0.00000178,-0.0000020
 8,-0.00000049,0.00000303,-0.00000049,0.00000035,-0.00000132,-0.0000000
 1,0.00000038,0.00000138,-0.00000126,-0.00000046,-0.00000117,-0.0000012
 2,0.00000064,-0.00000027,0.00000321,0.00000263,0.00000078,-0.00000067,
 -0.00000111,-0.00000134,-0.00000073,-0.00000033,-0.00000015,-0.0000000
 6,0.00000078,0.00000070,0.00000043,0.00000027,-0.00000102,0.,0.0000002
 1,-0.00000110,-0.00000041,0.,-0.00000051,-0.00000079,0.00000180,-0.000
 00321,0.00000002,-0.00000023,-0.00000110,0.00000013,0.00000095,-0.0000
 0024,-0.00000038,0.00000107,-0.00000063,-0.00000100,0.00000133,-0.0000
 0059,-0.00000083,0.00000097,0.00000178,-0.00000079,0.00000290,0.000000
 33,0.00000056,0.00000043,-0.00000042,-0.00000065,0.00000145,-0.0000006
 8,-0.00000093,0.00000160,-0.00000096,-0.00000063,0.00000144,0.00000021
 ,-0.00000042,0.00000185,0.00000010,0.,0.00000116,-0.00000085,0.0000007
 7,-0.00000037,-0.00000026,0.00000083,-0.00000041,-0.00000065,0.0000012
 3,-0.00000095,-0.00000034,0.00000115,-0.00000072\\\@
 The archive entry for this job was punched.


 BUT 'GLORY' DOESN'T MEAN 'A NICE KNOCK DOWN ARGUMENT', ALICE OBJECTED.
 WHEN I USE A WORD, HUMPTY DUMPTY SAID, IN A RATHER SCORNFUL TONE,
 IT MEANS JUST WHAT I CHOOSE IT TO MEAN....
 NEITHER MORE NOR LESS....
 THE QUESTION IS, SAID ALICE,
 WHETHER YOU CAN MAKE WORDS MEAN SO MANY DIFFERENT THINGS...
 THE QUESTION IS, SAID HUMPTY DUMPTY,
 WHICH IS TO BE MASTER....
 THAT IS ALL.....

 ALICE THROUGH THE LOOKING GLASS
 Job cpu time:       1 days  0 hours 35 minutes  5.1 seconds.
 Elapsed time:       0 days  0 hours 16 minutes 14.1 seconds.
 File lengths (MBytes):  RWF=   5647 Int=      0 D2E=      0 Chk=     46 Scr=      1
 Normal termination of Gaussian 16 at Fri Nov 21 17:51:08 2025.
