 Entering Gaussian System, Link 0=g16
 Initial command:
 /public/software/g16/l1.exe "/tmp/Gau-9078.inp" -scrdir="/tmp/"
 Entering Link 1 = /public/software/g16/l1.exe PID=      9080.
  
 Copyright (c) 1988-2021, Gaussian, Inc.  All Rights Reserved.
  
 This is part of the Gaussian(R) 16 program.  It is based on
 the Gaussian(R) 09 system (copyright 2009, Gaussian, Inc.),
 the Gaussian(R) 03 system (copyright 2003, Gaussian, Inc.),
 the Gaussian(R) 98 system (copyright 1998, Gaussian, Inc.),
 the Gaussian(R) 94 system (copyright 1995, Gaussian, Inc.),
 the Gaussian 92(TM) system (copyright 1992, Gaussian, Inc.),
 the Gaussian 90(TM) system (copyright 1990, Gaussian, Inc.),
 the Gaussian 88(TM) system (copyright 1988, Gaussian, Inc.),
 the Gaussian 86(TM) system (copyright 1986, Carnegie Mellon
 University), and the Gaussian 82(TM) system (copyright 1983,
 Carnegie Mellon University). Gaussian is a federally registered
 trademark of Gaussian, Inc.
  
 This software contains proprietary and confidential information,
 including trade secrets, belonging to Gaussian, Inc.
  
 This software is provided under written license and may be
 used, copied, transmitted, or stored only in accord with that
 written license.
  
 The following legend is applicable only to US Government
 contracts under FAR:
  
                    RESTRICTED RIGHTS LEGEND
  
 Use, reproduction and disclosure by the US Government is
 subject to restrictions as set forth in subparagraphs (a)
 and (c) of the Commercial Computer Software - Restricted
 Rights clause in FAR 52.227-19.
  
 Gaussian, Inc.
 340 Quinnipiac St., Bldg. 40, Wallingford CT 06492
  
  
 ---------------------------------------------------------------
 Warning -- This program may not be used in any manner that
 competes with the business of Gaussian, Inc. or will provide
 assistance to any competitor of Gaussian, Inc.  The licensee
 of this program is prohibited from giving any competitor of
 Gaussian, Inc. access to this program.  By using this program,
 the user acknowledges that Gaussian, Inc. is engaged in the
 business of creating and licensing software in the field of
 computational chemistry and represents and warrants to the
 licensee that it is not a competitor of Gaussian, Inc. and that
 it will not use this program in any manner prohibited above.
 ---------------------------------------------------------------
  

 Cite this work as:
 Gaussian 16, Revision C.02,
 M. J. Frisch, G. W. Trucks, H. B. Schlegel, G. E. Scuseria, 
 M. A. Robb, J. R. Cheeseman, G. Scalmani, V. Barone, 
 G. A. Petersson, H. Nakatsuji, X. Li, M. Caricato, A. V. Marenich, 
 J. Bloino, B. G. Janesko, R. Gomperts, B. Mennucci, H. P. Hratchian, 
 J. V. Ortiz, A. F. Izmaylov, J. L. Sonnenberg, D. Williams-Young, 
 F. Ding, F. Lipparini, F. Egidi, J. Goings, B. Peng, A. Petrone, 
 T. Henderson, D. Ranasinghe, V. G. Zakrzewski, J. Gao, N. Rega, 
 G. Zheng, W. Liang, M. Hada, M. Ehara, K. Toyota, R. Fukuda, 
 J. Hasegawa, M. Ishida, T. Nakajima, Y. Honda, O. Kitao, H. Nakai, 
 T. Vreven, K. Throssell, J. A. Montgomery, Jr., J. E. Peralta, 
 F. Ogliaro, M. J. Bearpark, J. J. Heyd, E. N. Brothers, K. N. Kudin, 
 V. N. Staroverov, T. A. Keith, R. Kobayashi, J. Normand, 
 K. Raghavachari, A. P. Rendell, J. C. Burant, S. S. Iyengar, 
 J. Tomasi, M. Cossi, J. M. Millam, M. Klene, C. Adamo, R. Cammi, 
 J. W. Ochterski, R. L. Martin, K. Morokuma, O. Farkas, 
 J. B. Foresman, and D. J. Fox, Gaussian, Inc., Wallingford CT, 2019.
 
 ******************************************
 Gaussian 16:  ES64L-G16RevC.02  7-Dec-2021
                20-Nov-2025 
 ******************************************
 %nprocshared=96
 Will use up to   96 processors via shared memory.
 %mem=10GB
 %chk=IM1.chk
 -------------------------
 # opt freq 6-31g(d) m062x
 -------------------------
 1/18=20,19=15,26=3,38=1/1,3;
 2/9=110,12=2,17=6,18=5,40=1/2;
 3/5=1,6=6,7=1,11=2,25=1,30=1,71=1,74=-55/1,2,3;
 4//1;
 5/5=2,38=5/2;
 6/7=2,8=2,9=2,10=2,28=1/1;
 7//1,2,3,16;
 1/18=20,19=15,26=3/3(2);
 2/9=110/2;
 99//99;
 2/9=110/2;
 3/5=1,6=6,7=1,11=2,25=1,30=1,71=1,74=-55/1,2,3;
 4/5=5,16=3,69=1/1;
 5/5=2,38=5/2;
 7//1,2,3,16;
 1/18=20,19=15,26=3/3(-5);
 2/9=110/2;
 6/7=2,8=2,9=2,10=2,19=2,28=1/1;
 99/9=1/99;
 -------------------
 Title Card Required
 -------------------
 Symbolic Z-matrix:
 Charge =  0 Multiplicity = 2
 C                    -3.71502   1.19739  -1.60052 
 C                    -2.88297   0.50092  -0.70776 
 C                    -3.22386   0.4249    0.66303 
 C                    -4.38453   1.03118   1.15976 
 C                    -5.19115   1.71371   0.26139 
 C                    -4.8605    1.79693  -1.10666 
 H                    -3.44447   1.25022  -2.65513 
 H                    -4.64447   0.96947   2.21648 
 H                    -6.10036   2.19603   0.62224 
 H                    -5.51957   2.34191  -1.78307 
 S                    -2.01914  -0.4906    1.52104 
 N                    -1.71214  -0.15173  -1.04436 
 C                    -1.19744  -0.68956  -0.00104 
 S                     0.33596  -1.6193   -0.05833 
 O                     0.24833  -2.57451  -1.15661 
 O                     0.55894  -2.09564   1.30517 
 C                     1.56339  -0.38772  -0.46811 
 C                     2.93976  -1.06556  -0.58702 
 H                     1.52737   0.35435   0.34148 
 H                     1.23422   0.06719  -1.4124 
 C                     4.00697  -0.07095  -0.90186 
 H                     3.15301  -1.56751   0.37136 
 H                     2.87681  -1.8379   -1.36637 
 C                     4.50892   0.87798   0.13239 
 H                     4.22446   0.14038  -1.95277 
 H                     3.79322   1.71679   0.26821 
 H                     4.5449    0.36931   1.11294 
 C                     5.88101   1.46686  -0.19764 
 C                     6.37147   2.44783   0.85991 
 H                     5.82613   1.96807  -1.17796 
 H                     6.60398   0.64339  -0.31352 
 H                     7.35759   2.85836   0.6024 
 H                     5.6724    3.29083   0.96823 
 H                     6.4561    1.95748   1.8414 
 

 GradGradGradGradGradGradGradGradGradGradGradGradGradGradGradGradGradGrad
 Berny optimization.
 Initialization pass.
                           ----------------------------
                           !    Initial Parameters    !
                           ! (Angstroms and Degrees)  !
 --------------------------                            --------------------------
 ! Name  Definition              Value          Derivative Info.                !
 --------------------------------------------------------------------------------
 ! R1    R(1,2)                  1.4051         estimate D2E/DX2                !
 ! R2    R(1,6)                  1.384          estimate D2E/DX2                !
 ! R3    R(1,7)                  1.09           estimate D2E/DX2                !
 ! R4    R(2,3)                  1.4146         estimate D2E/DX2                !
 ! R5    R(2,12)                 1.3821         estimate D2E/DX2                !
 ! R6    R(3,4)                  1.4005         estimate D2E/DX2                !
 ! R7    R(3,11)                 1.7394         estimate D2E/DX2                !
 ! R8    R(4,5)                  1.3869         estimate D2E/DX2                !
 ! R9    R(4,8)                  1.09           estimate D2E/DX2                !
 ! R10   R(5,6)                  1.4099         estimate D2E/DX2                !
 ! R11   R(5,9)                  1.0906         estimate D2E/DX2                !
 ! R12   R(6,10)                 1.0904         estimate D2E/DX2                !
 ! R13   R(11,13)                1.7411         estimate D2E/DX2                !
 ! R14   R(12,13)                1.2817         estimate D2E/DX2                !
 ! R15   R(13,14)                1.7942         estimate D2E/DX2                !
 ! R16   R(14,15)                1.4582         estimate D2E/DX2                !
 ! R17   R(14,16)                1.4614         estimate D2E/DX2                !
 ! R18   R(14,17)                1.7864         estimate D2E/DX2                !
 ! R19   R(17,18)                1.5388         estimate D2E/DX2                !
 ! R20   R(17,19)                1.0988         estimate D2E/DX2                !
 ! R21   R(17,20)                1.0986         estimate D2E/DX2                !
 ! R22   R(18,21)                1.4924         estimate D2E/DX2                !
 ! R23   R(18,22)                1.1027         estimate D2E/DX2                !
 ! R24   R(18,23)                1.099          estimate D2E/DX2                !
 ! R25   R(21,24)                1.4907         estimate D2E/DX2                !
 ! R26   R(21,25)                1.0938         estimate D2E/DX2                !
 ! R27   R(24,26)                1.111          estimate D2E/DX2                !
 ! R28   R(24,27)                1.1052         estimate D2E/DX2                !
 ! R29   R(24,28)                1.5292         estimate D2E/DX2                !
 ! R30   R(28,29)                1.5236         estimate D2E/DX2                !
 ! R31   R(28,30)                1.1024         estimate D2E/DX2                !
 ! R32   R(28,31)                1.1019         estimate D2E/DX2                !
 ! R33   R(29,32)                1.0988         estimate D2E/DX2                !
 ! R34   R(29,33)                1.1005         estimate D2E/DX2                !
 ! R35   R(29,34)                1.1004         estimate D2E/DX2                !
 ! A1    A(2,1,6)              118.5613         estimate D2E/DX2                !
 ! A2    A(2,1,7)              119.4559         estimate D2E/DX2                !
 ! A3    A(6,1,7)              121.9828         estimate D2E/DX2                !
 ! A4    A(1,2,3)              119.9752         estimate D2E/DX2                !
 ! A5    A(1,2,12)             125.5191         estimate D2E/DX2                !
 ! A6    A(3,2,12)             114.5055         estimate D2E/DX2                !
 ! A7    A(2,3,4)              121.342          estimate D2E/DX2                !
 ! A8    A(2,3,11)             109.839          estimate D2E/DX2                !
 ! A9    A(4,3,11)             128.819          estimate D2E/DX2                !
 ! A10   A(3,4,5)              117.7285         estimate D2E/DX2                !
 ! A11   A(3,4,8)              121.1308         estimate D2E/DX2                !
 ! A12   A(5,4,8)              121.1407         estimate D2E/DX2                !
 ! A13   A(4,5,6)              121.4105         estimate D2E/DX2                !
 ! A14   A(4,5,9)              119.2199         estimate D2E/DX2                !
 ! A15   A(6,5,9)              119.3697         estimate D2E/DX2                !
 ! A16   A(1,6,5)              120.9824         estimate D2E/DX2                !
 ! A17   A(1,6,10)             119.6982         estimate D2E/DX2                !
 ! A18   A(5,6,10)             119.3194         estimate D2E/DX2                !
 ! A19   A(3,11,13)             87.4661         estimate D2E/DX2                !
 ! A20   A(2,12,13)            109.884          estimate D2E/DX2                !
 ! A21   A(11,13,12)           118.3035         estimate D2E/DX2                !
 ! A22   A(11,13,14)           119.3718         estimate D2E/DX2                !
 ! A23   A(12,13,14)           122.3224         estimate D2E/DX2                !
 ! A24   A(13,14,15)           108.1885         estimate D2E/DX2                !
 ! A25   A(13,14,16)           105.6354         estimate D2E/DX2                !
 ! A26   A(13,14,17)           103.7267         estimate D2E/DX2                !
 ! A27   A(15,14,16)           119.8922         estimate D2E/DX2                !
 ! A28   A(15,14,17)           108.6712         estimate D2E/DX2                !
 ! A29   A(16,14,17)           109.5052         estimate D2E/DX2                !
 ! A30   A(14,17,18)           109.1835         estimate D2E/DX2                !
 ! A31   A(14,17,19)           105.9061         estimate D2E/DX2                !
 ! A32   A(14,17,20)           106.0671         estimate D2E/DX2                !
 ! A33   A(18,17,19)           112.5645         estimate D2E/DX2                !
 ! A34   A(18,17,20)           112.5795         estimate D2E/DX2                !
 ! A35   A(19,17,20)           110.1099         estimate D2E/DX2                !
 ! A36   A(17,18,21)           111.2439         estimate D2E/DX2                !
 ! A37   A(17,18,22)           107.8382         estimate D2E/DX2                !
 ! A38   A(17,18,23)           108.2474         estimate D2E/DX2                !
 ! A39   A(21,18,22)           110.3912         estimate D2E/DX2                !
 ! A40   A(21,18,23)           111.0816         estimate D2E/DX2                !
 ! A41   A(22,18,23)           107.9089         estimate D2E/DX2                !
 ! A42   A(18,21,24)           121.2426         estimate D2E/DX2                !
 ! A43   A(18,21,25)           118.2705         estimate D2E/DX2                !
 ! A44   A(24,21,25)           118.4686         estimate D2E/DX2                !
 ! A45   A(21,24,26)           110.3974         estimate D2E/DX2                !
 ! A46   A(21,24,27)           109.4832         estimate D2E/DX2                !
 ! A47   A(21,24,28)           113.4245         estimate D2E/DX2                !
 ! A48   A(26,24,27)           105.0705         estimate D2E/DX2                !
 ! A49   A(26,24,28)           108.28           estimate D2E/DX2                !
 ! A50   A(27,24,28)           109.8469         estimate D2E/DX2                !
 ! A51   A(24,28,29)           112.7671         estimate D2E/DX2                !
 ! A52   A(24,28,30)           108.8045         estimate D2E/DX2                !
 ! A53   A(24,28,31)           108.8813         estimate D2E/DX2                !
 ! A54   A(29,28,30)           109.9111         estimate D2E/DX2                !
 ! A55   A(29,28,31)           110.057          estimate D2E/DX2                !
 ! A56   A(30,28,31)           106.1962         estimate D2E/DX2                !
 ! A57   A(28,29,32)           111.5183         estimate D2E/DX2                !
 ! A58   A(28,29,33)           110.9186         estimate D2E/DX2                !
 ! A59   A(28,29,34)           110.9135         estimate D2E/DX2                !
 ! A60   A(32,29,33)           107.877          estimate D2E/DX2                !
 ! A61   A(32,29,34)           107.8485         estimate D2E/DX2                !
 ! A62   A(33,29,34)           107.6022         estimate D2E/DX2                !
 ! D1    D(6,1,2,3)             -0.0296         estimate D2E/DX2                !
 ! D2    D(6,1,2,12)           179.7962         estimate D2E/DX2                !
 ! D3    D(7,1,2,3)           -179.971          estimate D2E/DX2                !
 ! D4    D(7,1,2,12)            -0.1451         estimate D2E/DX2                !
 ! D5    D(2,1,6,5)             -0.0293         estimate D2E/DX2                !
 ! D6    D(2,1,6,10)          -179.9853         estimate D2E/DX2                !
 ! D7    D(7,1,6,5)            179.9104         estimate D2E/DX2                !
 ! D8    D(7,1,6,10)            -0.0456         estimate D2E/DX2                !
 ! D9    D(1,2,3,4)              0.1099         estimate D2E/DX2                !
 ! D10   D(1,2,3,11)          -179.9276         estimate D2E/DX2                !
 ! D11   D(12,2,3,4)          -179.7343         estimate D2E/DX2                !
 ! D12   D(12,2,3,11)            0.2282         estimate D2E/DX2                !
 ! D13   D(1,2,12,13)         -179.7579         estimate D2E/DX2                !
 ! D14   D(3,2,12,13)            0.0763         estimate D2E/DX2                !
 ! D15   D(2,3,4,5)             -0.126          estimate D2E/DX2                !
 ! D16   D(2,3,4,8)            179.9298         estimate D2E/DX2                !
 ! D17   D(11,3,4,5)           179.9193         estimate D2E/DX2                !
 ! D18   D(11,3,4,8)            -0.0249         estimate D2E/DX2                !
 ! D19   D(2,3,11,13)           -0.3354         estimate D2E/DX2                !
 ! D20   D(4,3,11,13)          179.6235         estimate D2E/DX2                !
 ! D21   D(3,4,5,6)              0.0662         estimate D2E/DX2                !
 ! D22   D(3,4,5,9)           -179.9265         estimate D2E/DX2                !
 ! D23   D(8,4,5,6)           -179.9896         estimate D2E/DX2                !
 ! D24   D(8,4,5,9)              0.0178         estimate D2E/DX2                !
 ! D25   D(4,5,6,1)              0.0108         estimate D2E/DX2                !
 ! D26   D(4,5,6,10)           179.967          estimate D2E/DX2                !
 ! D27   D(9,5,6,1)           -179.9965         estimate D2E/DX2                !
 ! D28   D(9,5,6,10)            -0.0403         estimate D2E/DX2                !
 ! D29   D(3,11,13,12)           0.4284         estimate D2E/DX2                !
 ! D30   D(3,11,13,14)         179.8934         estimate D2E/DX2                !
 ! D31   D(2,12,13,11)          -0.3681         estimate D2E/DX2                !
 ! D32   D(2,12,13,14)        -179.8164         estimate D2E/DX2                !
 ! D33   D(11,13,14,15)        131.7987         estimate D2E/DX2                !
 ! D34   D(11,13,14,16)          2.2531         estimate D2E/DX2                !
 ! D35   D(11,13,14,17)       -112.9152         estimate D2E/DX2                !
 ! D36   D(12,13,14,15)        -48.7586         estimate D2E/DX2                !
 ! D37   D(12,13,14,16)       -178.3042         estimate D2E/DX2                !
 ! D38   D(12,13,14,17)         66.5274         estimate D2E/DX2                !
 ! D39   D(13,14,17,18)       -178.5182         estimate D2E/DX2                !
 ! D40   D(13,14,17,19)         60.0419         estimate D2E/DX2                !
 ! D41   D(13,14,17,20)        -56.9664         estimate D2E/DX2                !
 ! D42   D(15,14,17,18)        -63.5753         estimate D2E/DX2                !
 ! D43   D(15,14,17,19)        174.9847         estimate D2E/DX2                !
 ! D44   D(15,14,17,20)         57.9765         estimate D2E/DX2                !
 ! D45   D(16,14,17,18)         69.0951         estimate D2E/DX2                !
 ! D46   D(16,14,17,19)        -52.3448         estimate D2E/DX2                !
 ! D47   D(16,14,17,20)       -169.353          estimate D2E/DX2                !
 ! D48   D(14,17,18,21)       -178.8436         estimate D2E/DX2                !
 ! D49   D(14,17,18,22)        -57.658          estimate D2E/DX2                !
 ! D50   D(14,17,18,23)         58.8445         estimate D2E/DX2                !
 ! D51   D(19,17,18,21)        -61.534          estimate D2E/DX2                !
 ! D52   D(19,17,18,22)         59.6516         estimate D2E/DX2                !
 ! D53   D(19,17,18,23)        176.1541         estimate D2E/DX2                !
 ! D54   D(20,17,18,21)         63.6377         estimate D2E/DX2                !
 ! D55   D(20,17,18,22)       -175.1767         estimate D2E/DX2                !
 ! D56   D(20,17,18,23)        -58.6742         estimate D2E/DX2                !
 ! D57   D(17,18,21,24)         73.9159         estimate D2E/DX2                !
 ! D58   D(17,18,21,25)        -89.6767         estimate D2E/DX2                !
 ! D59   D(22,18,21,24)        -45.7634         estimate D2E/DX2                !
 ! D60   D(22,18,21,25)        150.644          estimate D2E/DX2                !
 ! D61   D(23,18,21,24)       -165.4261         estimate D2E/DX2                !
 ! D62   D(23,18,21,25)         30.9812         estimate D2E/DX2                !
 ! D63   D(18,21,24,26)        -78.1875         estimate D2E/DX2                !
 ! D64   D(18,21,24,27)         37.0142         estimate D2E/DX2                !
 ! D65   D(18,21,24,28)        160.0903         estimate D2E/DX2                !
 ! D66   D(25,21,24,26)         85.3736         estimate D2E/DX2                !
 ! D67   D(25,21,24,27)       -159.4248         estimate D2E/DX2                !
 ! D68   D(25,21,24,28)        -36.3486         estimate D2E/DX2                !
 ! D69   D(21,24,28,29)        179.2607         estimate D2E/DX2                !
 ! D70   D(21,24,28,30)         57.0474         estimate D2E/DX2                !
 ! D71   D(21,24,28,31)        -58.2852         estimate D2E/DX2                !
 ! D72   D(26,24,28,29)         56.3634         estimate D2E/DX2                !
 ! D73   D(26,24,28,30)        -65.85           estimate D2E/DX2                !
 ! D74   D(26,24,28,31)        178.8174         estimate D2E/DX2                !
 ! D75   D(27,24,28,29)        -57.8635         estimate D2E/DX2                !
 ! D76   D(27,24,28,30)        179.9232         estimate D2E/DX2                !
 ! D77   D(27,24,28,31)         64.5906         estimate D2E/DX2                !
 ! D78   D(24,28,29,32)       -179.974          estimate D2E/DX2                !
 ! D79   D(24,28,29,33)        -59.7114         estimate D2E/DX2                !
 ! D80   D(24,28,29,34)         59.803          estimate D2E/DX2                !
 ! D81   D(30,28,29,32)        -58.3853         estimate D2E/DX2                !
 ! D82   D(30,28,29,33)         61.8773         estimate D2E/DX2                !
 ! D83   D(30,28,29,34)       -178.6083         estimate D2E/DX2                !
 ! D84   D(31,28,29,32)         58.2339         estimate D2E/DX2                !
 ! D85   D(31,28,29,33)        178.4965         estimate D2E/DX2                !
 ! D86   D(31,28,29,34)        -61.9891         estimate D2E/DX2                !
 --------------------------------------------------------------------------------
 Trust Radius=3.00D-01 FncErr=1.00D-07 GrdErr=1.00D-06 EigMax=2.50D+02 EigMin=1.00D-04
 Number of steps in this run=    193 maximum allowed number of steps=    204.
 GradGradGradGradGradGradGradGradGradGradGradGradGradGradGradGradGradGrad

                          Input orientation:                          
 ---------------------------------------------------------------------
 Center     Atomic      Atomic             Coordinates (Angstroms)
 Number     Number       Type             X           Y           Z
 ---------------------------------------------------------------------
      1          6           0       -3.715022    1.197389   -1.600520
      2          6           0       -2.882968    0.500921   -0.707759
      3          6           0       -3.223858    0.424898    0.663025
      4          6           0       -4.384525    1.031179    1.159762
      5          6           0       -5.191154    1.713707    0.261391
      6          6           0       -4.860497    1.796930   -1.106664
      7          1           0       -3.444471    1.250218   -2.655134
      8          1           0       -4.644466    0.969473    2.216482
      9          1           0       -6.100357    2.196027    0.622238
     10          1           0       -5.519573    2.341905   -1.783072
     11         16           0       -2.019141   -0.490604    1.521035
     12          7           0       -1.712139   -0.151729   -1.044357
     13          6           0       -1.197439   -0.689560   -0.001044
     14         16           0        0.335964   -1.619304   -0.058331
     15          8           0        0.248331   -2.574513   -1.156606
     16          8           0        0.558943   -2.095641    1.305171
     17          6           0        1.563385   -0.387720   -0.468110
     18          6           0        2.939758   -1.065556   -0.587016
     19          1           0        1.527371    0.354351    0.341478
     20          1           0        1.234216    0.067185   -1.412396
     21          6           0        4.006973   -0.070947   -0.901857
     22          1           0        3.153009   -1.567508    0.371363
     23          1           0        2.876813   -1.837900   -1.366373
     24          6           0        4.508915    0.877982    0.132392
     25          1           0        4.224461    0.140376   -1.952774
     26          1           0        3.793222    1.716787    0.268206
     27          1           0        4.544896    0.369309    1.112943
     28          6           0        5.881014    1.466864   -0.197642
     29          6           0        6.371469    2.447831    0.859910
     30          1           0        5.826125    1.968072   -1.177963
     31          1           0        6.603975    0.643387   -0.313515
     32          1           0        7.357586    2.858359    0.602402
     33          1           0        5.672400    3.290826    0.968227
     34          1           0        6.456099    1.957480    1.841397
 ---------------------------------------------------------------------
                    Distance matrix (angstroms):
                    1          2          3          4          5
     1  C    0.000000
     2  C    1.405135   0.000000
     3  C    2.441643   1.414579   0.000000
     4  C    2.845174   2.454278   1.400526   0.000000
     5  C    2.431514   2.781694   2.385915   1.386927   0.000000
     6  C    1.384000   2.397788   2.773600   2.439182   1.409906
     7  H    1.090046   2.160787   3.426369   3.935113   3.431012
     8  H    3.935139   3.445809   2.174378   1.089970   2.162206
     9  H    3.409949   3.872192   3.378285   2.142401   1.090639
    10  H    2.144679   3.390753   3.863756   3.415642   2.163867
    11  S    3.933121   2.587826   1.739445   2.835733   4.062925
    12  N    2.478099   1.382060   2.352222   3.660472   4.157929
    13  C    3.529465   2.181215   2.406113   3.803410   4.668439
    14  S    5.169390   3.908789   4.167907   5.549038   6.462215
    15  O    5.489305   4.411892   4.935952   6.311096   7.070187
    16  O    6.128121   4.758232   4.590757   5.851156   6.975975
    17  C    5.626411   4.540613   4.985731   6.327786   7.111397
    18  C    7.101705   6.030967   6.463298   7.816179   8.634572
    19  H    5.653738   4.535799   4.762620   6.006513   6.855132
    20  H    5.080129   4.199505   4.930492   6.254241   6.840905
    21  C    7.856590   6.916357   7.414825   8.711039   9.441593
    22  H    7.661777   6.471161   6.687240   8.011814   8.966801
    23  H    7.260860   6.251315   6.815930   8.206095   8.964130
    24  C    8.410597   7.449024   7.764189   8.953895   9.736859
    25  H    8.017278   7.224652   7.899419   9.197611   9.799577
    26  H    7.754717   6.855826   7.145927   8.254724   8.984379
    27  H    8.733547   7.648885   7.781970   8.954039   9.865253
    28  C    9.701783   8.831797   9.204626  10.364056  11.084428
    29  C   10.457276   9.586065   9.808227  10.853028  11.601354
    30  H    9.581544   8.844316   9.363376  10.516658  11.113815
    31  H   10.413693   9.496200   9.878647  11.093604  11.857536
    32  H   11.411150  10.589758  10.857825  11.896487  12.605451
    33  H    9.955131   9.153514   9.351476  10.309434  11.000169
    34  H   10.764582   9.789685   9.871116  10.901458  11.756460
                    6          7          8          9         10
     6  C    0.000000
     7  H    2.168360   0.000000
     8  H    3.431422   5.025082   0.000000
     9  H    2.164632   4.323130   2.483076   0.000000
    10  H    1.090370   2.501664   4.318080   2.478731   0.000000
    11  S    4.495655   4.743671   3.083473   4.968113   5.585092
    12  N    3.703149   2.749733   4.526445   5.248424   4.610907
    13  C    4.563225   3.981970   4.421743   5.723085   5.571916
    14  S    6.306573   5.410105   6.056503   7.513065   7.276896
    15  O    6.723997   5.523671   6.919322   8.138070   7.604758
    16  O    7.095026   6.550276   6.107444   7.951798   8.134950
    17  C    6.815182   5.704782   6.898291   8.160732   7.703783
    18  C    8.325133   7.099176   8.337949   9.686274   9.197914
    19  H    6.706937   5.873796   6.479629   7.851932   7.623877
    20  H    6.342792   4.983380   6.967193   7.903649   7.136205
    21  C    9.064377   7.768106   9.254940  10.469964   9.866786
    22  H    8.815911   7.786270   8.404841   9.992593   9.753911
    23  H    8.552509   7.152343   8.791350  10.040753   9.388488
    24  C    9.495557   8.435947   9.388087  10.702049  10.314196
    25  H    9.273432   7.780590   9.835038  10.837816   9.991082
    26  H    8.762622   7.819706   8.691883   9.911504   9.556499
    27  H    9.768632   8.877184   9.274824  10.811989  10.656996
    28  C   10.784958   9.646288  10.810232  12.031506  11.543512
    29  C   11.421390  10.494879  11.197172  12.476632  12.181685
    30  H   10.688230   9.414951  11.052273  12.063733  11.367971
    31  H   11.549626  10.335506  11.534064  12.833019  12.329841
    32  H   12.382612  11.396583  12.256525  13.474246  13.106427
    33  H   10.838765  10.020487  10.648218  11.828614  11.564184
    34  H   11.695392  10.896802  11.150757  12.617759  12.518038
                   11         12         13         14         15
    11  S    0.000000
    12  N    2.605825   0.000000
    13  C    1.741121   1.281671   0.000000
    14  S    3.052029   2.705688   1.794166   0.000000
    15  O    4.080915   3.118641   2.641708   1.458188   0.000000
    16  O    3.044546   3.802222   2.601565   1.461422   2.527082
    17  C    4.098997   3.334188   2.816275   1.786415   2.643002
    18  C    5.418960   4.762813   4.195371   2.714017   3.137700
    19  H    3.831847   3.559646   2.937969   2.339789   3.529652
    20  H    4.415935   2.977312   2.911619   2.341921   2.831248
    21  C    6.508500   5.721457   5.317899   4.072500   4.523287
    22  H    5.406718   5.261023   4.453749   2.850099   3.433060
    23  H    5.841464   4.899525   4.447734   2.866125   2.737794
    24  C    6.812993   6.414558   5.919246   4.866861   5.633277
    25  H    7.172730   6.012800   5.821945   4.669668   4.879971
    26  H    6.342375   5.960132   5.547044   4.815471   5.745572
    27  H    6.632690   6.638969   5.944458   4.800164   5.681321
    28  C    8.318532   7.809785   7.402250   6.347552   6.998533
    29  C    8.914809   8.702222   8.238497   7.335671   8.172092
    30  H    8.653200   7.831783   7.601223   6.653173   7.193561
    31  H    8.888737   8.385946   7.920634   6.668797   7.173555
    32  H    9.999122   9.697028   9.281181   8.353994   9.118756
    33  H    8.588633   8.392443   7.998603   7.323984   8.266658
    34  H    8.827539   8.916078   8.305303   7.338828   8.250052
                   16         17         18         19         20
    16  O    0.000000
    17  C    2.659027   0.000000
    18  C    3.210876   1.538832   0.000000
    19  H    2.805177   1.098817   2.207504   0.000000
    20  H    3.538217   1.098620   2.207539   1.801244   0.000000
    21  C    4.567195   2.501920   1.492421   2.806276   2.822749
    22  H    2.807152   2.150237   1.102689   2.517366   3.088006
    23  H    3.546280   2.152903   1.099034   3.089290   2.515868
    24  C    5.081351   3.261710   2.599450   3.034388   3.710447
    25  H    5.389805   3.092643   2.229356   3.547347   3.039561
    26  H    5.105924   3.153297   3.033354   2.644935   3.477660
    27  H    4.690496   3.458646   2.743204   3.114617   4.174831
    28  C    6.578323   4.706863   3.900737   4.525764   5.002745
    29  C    7.390998   5.737740   5.119973   5.302520   6.101001
    30  H    7.100910   4.921849   4.228857   4.836536   4.975335
    31  H    6.831166   5.147293   4.052379   5.126838   5.511248
    32  H    8.441419   6.727242   6.027357   6.350555   7.024651
    33  H    7.434716   5.699015   5.372539   5.118297   5.979691
    34  H    7.175777   5.896816   5.234557   5.395567   6.436493
                   21         22         23         24         25
    21  C    0.000000
    22  H    2.142438   0.000000
    23  H    2.148292   1.780203   0.000000
    24  C    1.490665   2.806423   3.505149   0.000000
    25  H    1.093794   3.076766   2.464467   2.229999   0.000000
    26  H    2.147261   3.347702   4.018389   1.110971   2.757497
    27  H    2.131339   2.497709   3.715007   1.105225   3.090908
    28  C    2.524443   4.119853   4.616559   1.529170   2.753947
    29  C    3.878003   5.169150   5.961245   2.542207   4.224356
    30  H    2.746479   4.695347   4.818647   2.154151   2.550712
    31  H    2.756962   4.155271   4.599677   2.154796   2.932964
    32  H    4.697897   6.109022   6.782938   3.501104   4.871635
    33  H    4.191942   5.505178   6.290429   2.806089   4.533664
    34  H    4.199783   5.049450   6.124213   2.806695   4.762122
                   26         27         28         29         30
    26  H    0.000000
    27  H    1.759060   0.000000
    28  C    2.153683   2.169671   0.000000
    29  C    2.744430   2.778605   1.523568   0.000000
    30  H    2.507438   3.073409   1.102384   2.163445   0.000000
    31  H    3.064461   2.519863   1.101914   2.164949   1.762700
    32  H    3.757601   3.790415   2.180962   1.098759   2.511510
    33  H    2.549301   3.134880   2.174766   1.100487   2.525756
    34  H    3.102221   2.589523   2.174651   1.100419   3.084399
                   31         32         33         34
    31  H    0.000000
    32  H    2.512555   0.000000
    33  H    3.085389   1.777838   0.000000
    34  H    2.528310   1.777462   1.776069   0.000000
 Stoichiometry    C13H16NO2S2(2)
 Framework group  C1[X(C13H16NO2S2)]
 Deg. of freedom    96
 Full point group                 C1      NOp   1
 Largest Abelian subgroup         C1      NOp   1
 Largest concise Abelian subgroup C1      NOp   1
                         Standard orientation:                         
 ---------------------------------------------------------------------
 Center     Atomic      Atomic             Coordinates (Angstroms)
 Number     Number       Type             X           Y           Z
 ---------------------------------------------------------------------
      1          6           0       -3.715022    1.197389   -1.600520
      2          6           0       -2.882968    0.500921   -0.707759
      3          6           0       -3.223858    0.424898    0.663025
      4          6           0       -4.384525    1.031179    1.159762
      5          6           0       -5.191154    1.713707    0.261391
      6          6           0       -4.860497    1.796930   -1.106664
      7          1           0       -3.444471    1.250218   -2.655134
      8          1           0       -4.644466    0.969473    2.216482
      9          1           0       -6.100357    2.196027    0.622238
     10          1           0       -5.519573    2.341905   -1.783072
     11         16           0       -2.019141   -0.490604    1.521035
     12          7           0       -1.712139   -0.151729   -1.044357
     13          6           0       -1.197439   -0.689560   -0.001044
     14         16           0        0.335964   -1.619304   -0.058331
     15          8           0        0.248331   -2.574513   -1.156606
     16          8           0        0.558943   -2.095641    1.305171
     17          6           0        1.563385   -0.387720   -0.468110
     18          6           0        2.939758   -1.065556   -0.587016
     19          1           0        1.527371    0.354351    0.341478
     20          1           0        1.234216    0.067185   -1.412396
     21          6           0        4.006973   -0.070947   -0.901857
     22          1           0        3.153009   -1.567508    0.371363
     23          1           0        2.876813   -1.837900   -1.366373
     24          6           0        4.508915    0.877982    0.132392
     25          1           0        4.224461    0.140376   -1.952774
     26          1           0        3.793222    1.716787    0.268206
     27          1           0        4.544896    0.369309    1.112943
     28          6           0        5.881014    1.466864   -0.197642
     29          6           0        6.371469    2.447831    0.859910
     30          1           0        5.826125    1.968072   -1.177963
     31          1           0        6.603975    0.643387   -0.313515
     32          1           0        7.357586    2.858359    0.602402
     33          1           0        5.672400    3.290826    0.968227
     34          1           0        6.456099    1.957480    1.841397
 ---------------------------------------------------------------------
 Rotational constants (GHZ):           0.6145966           0.1424548           0.1318731
 Standard basis: 6-31G(d) (6D, 7F)
 There are   310 symmetry adapted cartesian basis functions of A   symmetry.
 There are   310 symmetry adapted basis functions of A   symmetry.
   310 basis functions,   616 primitive gaussians,   310 cartesian basis functions
    75 alpha electrons       74 beta electrons
       nuclear repulsion energy      1536.6676215276 Hartrees.
 NAtoms=   34 NActive=   34 NUniq=   34 SFac= 1.00D+00 NAtFMM=   60 NAOKFM=F Big=F
 Integral buffers will be    131072 words long.
 Raffenetti 2 integral format.
 Two-electron integral symmetry is turned on.
 One-electron integrals computed using PRISM.
 NBasis=   310 RedAO= T EigKep=  4.68D-04  NBF=   310
 NBsUse=   310 1.00D-06 EigRej= -1.00D+00 NBFU=   310
 ExpMin= 1.17D-01 ExpMax= 2.19D+04 ExpMxC= 3.30D+03 IAcc=3 IRadAn=         5 AccDes= 0.00D+00
 Harris functional with IExCor= 1009 and IRadAn=       5 diagonalized for initial guess.
 HarFok:  IExCor= 1009 AccDes= 0.00D+00 IRadAn=         5 IDoV= 1 UseB2=F ITyADJ=14
 ICtDFT=  3500011 ScaDFX=  1.000000  1.000000  1.000000  1.000000
 FoFCou: FMM=F IPFlag=           0 FMFlag=      100000 FMFlg1=           0
         NFxFlg=           0 DoJE=T BraDBF=F KetDBF=T FulRan=T
         wScrn=  0.000000 ICntrl=       500 IOpCl=  0 I1Cent=   200000004 NGrid=           0
         NMat0=    1 NMatS0=      1 NMatT0=    0 NMatD0=    1 NMtDS0=    0 NMtDT0=    0
 Petite list used in FoFCou.
 Initial guess <Sx>= 0.0000 <Sy>= 0.0000 <Sz>= 0.5000 <S**2>= 0.7500 S= 0.5000
 Requested convergence on RMS density matrix=1.00D-08 within 128 cycles.
 Requested convergence on MAX density matrix=1.00D-06.
 Requested convergence on             energy=1.00D-06.
 No special actions if energy rises.
 Integral accuracy reduced to 1.0D-05 until final iterations.
 Initial convergence to 1.0D-05 achieved.  Increase integral accuracy.
 SCF Done:  E(UM062X) =  -1506.09787358     A.U. after   17 cycles
            NFock= 17  Conv=0.38D-08     -V/T= 2.0057
 <Sx>= 0.0000 <Sy>= 0.0000 <Sz>= 0.5000 <S**2>= 0.7549 S= 0.5025
 <L.S>=  0.00000000000    
 Annihilation of the first spin contaminant:
 S**2 before annihilation     0.7549,   after     0.7500

 **********************************************************************

            Population analysis using the SCF Density.

 **********************************************************************

 Orbital symmetries:
 Alpha Orbitals:
       Occupied  (A) (A) (A) (A) (A) (A) (A) (A) (A) (A) (A) (A)
                 (A) (A) (A) (A) (A) (A) (A) (A) (A) (A) (A) (A)
                 (A) (A) (A) (A) (A) (A) (A) (A) (A) (A) (A) (A)
                 (A) (A) (A) (A) (A) (A) (A) (A) (A) (A) (A) (A)
                 (A) (A) (A) (A) (A) (A) (A) (A) (A) (A) (A) (A)
                 (A) (A) (A) (A) (A) (A) (A) (A) (A) (A) (A) (A)
                 (A) (A) (A)
       Virtual   (A) (A) (A) (A) (A) (A) (A) (A) (A) (A) (A) (A)
                 (A) (A) (A) (A) (A) (A) (A) (A) (A) (A) (A) (A)
                 (A) (A) (A) (A) (A) (A) (A) (A) (A) (A) (A) (A)
                 (A) (A) (A) (A) (A) (A) (A) (A) (A) (A) (A) (A)
                 (A) (A) (A) (A) (A) (A) (A) (A) (A) (A) (A) (A)
                 (A) (A) (A) (A) (A) (A) (A) (A) (A) (A) (A) (A)
                 (A) (A) (A) (A) (A) (A) (A) (A) (A) (A) (A) (A)
                 (A) (A) (A) (A) (A) (A) (A) (A) (A) (A) (A) (A)
                 (A) (A) (A) (A) (A) (A) (A) (A) (A) (A) (A) (A)
                 (A) (A) (A) (A) (A) (A) (A) (A) (A) (A) (A) (A)
                 (A) (A) (A) (A) (A) (A) (A) (A) (A) (A) (A) (A)
                 (A) (A) (A) (A) (A) (A) (A) (A) (A) (A) (A) (A)
                 (A) (A) (A) (A) (A) (A) (A) (A) (A) (A) (A) (A)
                 (A) (A) (A) (A) (A) (A) (A) (A) (A) (A) (A) (A)
                 (A) (A) (A) (A) (A) (A) (A) (A) (A) (A) (A) (A)
                 (A) (A) (A) (A) (A) (A) (A) (A) (A) (A) (A) (A)
                 (A) (A) (A) (A) (A) (A) (A) (A) (A) (A) (A) (A)
                 (A) (A) (A) (A) (A) (A) (A) (A) (A) (A) (A) (A)
                 (A) (A) (A) (A) (A) (A) (A) (A) (A) (A) (A) (A)
                 (A) (A) (A) (A) (A) (A) (A)
 Beta  Orbitals:
       Occupied  (A) (A) (A) (A) (A) (A) (A) (A) (A) (A) (A) (A)
                 (A) (A) (A) (A) (A) (A) (A) (A) (A) (A) (A) (A)
                 (A) (A) (A) (A) (A) (A) (A) (A) (A) (A) (A) (A)
                 (A) (A) (A) (A) (A) (A) (A) (A) (A) (A) (A) (A)
                 (A) (A) (A) (A) (A) (A) (A) (A) (A) (A) (A) (A)
                 (A) (A) (A) (A) (A) (A) (A) (A) (A) (A) (A) (A)
                 (A) (A)
       Virtual   (A) (A) (A) (A) (A) (A) (A) (A) (A) (A) (A) (A)
                 (A) (A) (A) (A) (A) (A) (A) (A) (A) (A) (A) (A)
                 (A) (A) (A) (A) (A) (A) (A) (A) (A) (A) (A) (A)
                 (A) (A) (A) (A) (A) (A) (A) (A) (A) (A) (A) (A)
                 (A) (A) (A) (A) (A) (A) (A) (A) (A) (A) (A) (A)
                 (A) (A) (A) (A) (A) (A) (A) (A) (A) (A) (A) (A)
                 (A) (A) (A) (A) (A) (A) (A) (A) (A) (A) (A) (A)
                 (A) (A) (A) (A) (A) (A) (A) (A) (A) (A) (A) (A)
                 (A) (A) (A) (A) (A) (A) (A) (A) (A) (A) (A) (A)
                 (A) (A) (A) (A) (A) (A) (A) (A) (A) (A) (A) (A)
                 (A) (A) (A) (A) (A) (A) (A) (A) (A) (A) (A) (A)
                 (A) (A) (A) (A) (A) (A) (A) (A) (A) (A) (A) (A)
                 (A) (A) (A) (A) (A) (A) (A) (A) (A) (A) (A) (A)
                 (A) (A) (A) (A) (A) (A) (A) (A) (A) (A) (A) (A)
                 (A) (A) (A) (A) (A) (A) (A) (A) (A) (A) (A) (A)
                 (A) (A) (A) (A) (A) (A) (A) (A) (A) (A) (A) (A)
                 (A) (A) (A) (A) (A) (A) (A) (A) (A) (A) (A) (A)
                 (A) (A) (A) (A) (A) (A) (A) (A) (A) (A) (A) (A)
                 (A) (A) (A) (A) (A) (A) (A) (A) (A) (A) (A) (A)
                 (A) (A) (A) (A) (A) (A) (A) (A)
 The electronic state is 2-A.
 Alpha  occ. eigenvalues --  -90.14340 -89.97859 -19.63650 -19.63407 -14.79559
 Alpha  occ. eigenvalues --  -10.64984 -10.60786 -10.60631 -10.59595 -10.58111
 Alpha  occ. eigenvalues --  -10.57547 -10.57444 -10.57167 -10.56790 -10.56378
 Alpha  occ. eigenvalues --  -10.55271 -10.54752 -10.53819  -8.45825  -8.32409
 Alpha  occ. eigenvalues --   -6.37965  -6.37951  -6.37875  -6.24392  -6.24179
 Alpha  occ. eigenvalues --   -6.23916  -1.22965  -1.11933  -1.10588  -0.97322
 Alpha  occ. eigenvalues --   -0.93471  -0.91947  -0.89720  -0.86634  -0.84858
 Alpha  occ. eigenvalues --   -0.83214  -0.78506  -0.74411  -0.70067  -0.69640
 Alpha  occ. eigenvalues --   -0.68189  -0.65585  -0.65152  -0.59977  -0.58264
 Alpha  occ. eigenvalues --   -0.57433  -0.56750  -0.56258  -0.54374  -0.52719
 Alpha  occ. eigenvalues --   -0.52158  -0.51974  -0.51456  -0.49818  -0.48781
 Alpha  occ. eigenvalues --   -0.48141  -0.47656  -0.46648  -0.44716  -0.44436
 Alpha  occ. eigenvalues --   -0.43106  -0.42635  -0.41885  -0.40331  -0.40230
 Alpha  occ. eigenvalues --   -0.39614  -0.39367  -0.38940  -0.38098  -0.37842
 Alpha  occ. eigenvalues --   -0.37082  -0.34927  -0.31055  -0.30058  -0.24994
 Alpha virt. eigenvalues --   -0.03319   0.01362   0.04129   0.04927   0.08611
 Alpha virt. eigenvalues --    0.11468   0.13159   0.13363   0.14311   0.14840
 Alpha virt. eigenvalues --    0.15138   0.16395   0.16844   0.17432   0.17843
 Alpha virt. eigenvalues --    0.18014   0.19055   0.19738   0.20710   0.21047
 Alpha virt. eigenvalues --    0.21515   0.21555   0.21935   0.23074   0.23424
 Alpha virt. eigenvalues --    0.23863   0.24605   0.26142   0.26770   0.28092
 Alpha virt. eigenvalues --    0.28979   0.29917   0.31910   0.33084   0.33781
 Alpha virt. eigenvalues --    0.35518   0.37510   0.38489   0.39538   0.41055
 Alpha virt. eigenvalues --    0.43282   0.45460   0.46959   0.48349   0.51432
 Alpha virt. eigenvalues --    0.53235   0.53603   0.54694   0.55582   0.56268
 Alpha virt. eigenvalues --    0.57127   0.57778   0.58440   0.59127   0.59345
 Alpha virt. eigenvalues --    0.60858   0.61514   0.62427   0.63339   0.63710
 Alpha virt. eigenvalues --    0.64008   0.64792   0.65742   0.65966   0.66843
 Alpha virt. eigenvalues --    0.69046   0.69630   0.69718   0.70839   0.72962
 Alpha virt. eigenvalues --    0.73478   0.74570   0.76218   0.77176   0.78387
 Alpha virt. eigenvalues --    0.80425   0.82341   0.83538   0.84874   0.85414
 Alpha virt. eigenvalues --    0.86204   0.86907   0.88057   0.88317   0.89144
 Alpha virt. eigenvalues --    0.89799   0.90287   0.90985   0.91088   0.91567
 Alpha virt. eigenvalues --    0.92299   0.93876   0.94218   0.95141   0.95369
 Alpha virt. eigenvalues --    0.96000   0.96501   0.97814   0.97984   0.99199
 Alpha virt. eigenvalues --    0.99735   1.00212   1.00835   1.01400   1.02135
 Alpha virt. eigenvalues --    1.03176   1.04125   1.05410   1.06089   1.07598
 Alpha virt. eigenvalues --    1.08562   1.09105   1.11334   1.12496   1.13059
 Alpha virt. eigenvalues --    1.15463   1.16818   1.18838   1.19689   1.21804
 Alpha virt. eigenvalues --    1.24776   1.26633   1.27267   1.29178   1.30335
 Alpha virt. eigenvalues --    1.30700   1.31744   1.35326   1.37607   1.42247
 Alpha virt. eigenvalues --    1.43769   1.43958   1.45113   1.46150   1.47460
 Alpha virt. eigenvalues --    1.49557   1.51392   1.52793   1.55144   1.56515
 Alpha virt. eigenvalues --    1.58824   1.60309   1.63664   1.67298   1.69498
 Alpha virt. eigenvalues --    1.70910   1.73616   1.76385   1.77137   1.78784
 Alpha virt. eigenvalues --    1.80522   1.84172   1.84425   1.86056   1.87001
 Alpha virt. eigenvalues --    1.87904   1.89833   1.90732   1.92611   1.93126
 Alpha virt. eigenvalues --    1.95122   1.96626   1.97716   1.98035   1.99116
 Alpha virt. eigenvalues --    1.99350   1.99966   2.01129   2.02477   2.03443
 Alpha virt. eigenvalues --    2.05407   2.07147   2.08709   2.10710   2.13822
 Alpha virt. eigenvalues --    2.14687   2.15151   2.15728   2.16014   2.19776
 Alpha virt. eigenvalues --    2.21708   2.23013   2.25423   2.26762   2.27178
 Alpha virt. eigenvalues --    2.28943   2.30750   2.31005   2.35541   2.36213
 Alpha virt. eigenvalues --    2.37377   2.39242   2.40059   2.44052   2.44746
 Alpha virt. eigenvalues --    2.45684   2.50250   2.51689   2.52497   2.59345
 Alpha virt. eigenvalues --    2.60334   2.63494   2.65645   2.66609   2.67571
 Alpha virt. eigenvalues --    2.68352   2.73462   2.74778   2.79910   2.81269
 Alpha virt. eigenvalues --    2.81634   2.81878   2.87583   2.91925   3.00219
 Alpha virt. eigenvalues --    3.16060   3.37929   3.92716   3.94680   3.98983
 Alpha virt. eigenvalues --    4.03337   4.09038   4.11001   4.13102   4.13613
 Alpha virt. eigenvalues --    4.19674   4.21761   4.27629   4.28316   4.37100
 Alpha virt. eigenvalues --    4.37962   4.39295   4.48249   4.54734   4.70333
  Beta  occ. eigenvalues --  -90.14331 -89.97858 -19.63645 -19.63405 -14.79556
  Beta  occ. eigenvalues --  -10.64976 -10.60785 -10.60631 -10.59491 -10.58112
  Beta  occ. eigenvalues --  -10.57546 -10.57443 -10.57167 -10.56859 -10.55619
  Beta  occ. eigenvalues --  -10.55340 -10.54729 -10.53819  -8.45819  -8.32408
  Beta  occ. eigenvalues --   -6.37964  -6.37948  -6.37855  -6.24390  -6.24178
  Beta  occ. eigenvalues --   -6.23915  -1.22946  -1.11921  -1.10579  -0.97318
  Beta  occ. eigenvalues --   -0.92554  -0.91927  -0.89395  -0.86518  -0.84781
  Beta  occ. eigenvalues --   -0.82316  -0.78318  -0.74035  -0.69967  -0.69581
  Beta  occ. eigenvalues --   -0.67891  -0.65073  -0.63920  -0.59793  -0.58248
  Beta  occ. eigenvalues --   -0.57387  -0.56454  -0.56096  -0.53860  -0.52632
  Beta  occ. eigenvalues --   -0.52122  -0.51864  -0.51355  -0.49567  -0.48148
  Beta  occ. eigenvalues --   -0.47663  -0.46878  -0.46248  -0.44490  -0.44295
  Beta  occ. eigenvalues --   -0.43024  -0.42426  -0.41853  -0.40224  -0.39933
  Beta  occ. eigenvalues --   -0.39403  -0.39260  -0.38784  -0.38021  -0.37766
  Beta  occ. eigenvalues --   -0.37062  -0.34735  -0.31017  -0.30048
  Beta virt. eigenvalues --   -0.03516   0.00151   0.01367   0.04167   0.05010
  Beta virt. eigenvalues --    0.08788   0.11501   0.13220   0.13426   0.14442
  Beta virt. eigenvalues --    0.14933   0.15467   0.16520   0.16831   0.17526
  Beta virt. eigenvalues --    0.17869   0.18179   0.19058   0.19732   0.20779
  Beta virt. eigenvalues --    0.21099   0.21524   0.21657   0.22103   0.23284
  Beta virt. eigenvalues --    0.23704   0.24048   0.25059   0.26316   0.27001
  Beta virt. eigenvalues --    0.28521   0.29032   0.30091   0.32511   0.33625
  Beta virt. eigenvalues --    0.34352   0.36193   0.37568   0.38600   0.39571
  Beta virt. eigenvalues --    0.41063   0.43386   0.45651   0.47252   0.48373
  Beta virt. eigenvalues --    0.51584   0.53453   0.54182   0.54780   0.55777
  Beta virt. eigenvalues --    0.56506   0.57293   0.57949   0.58714   0.59384
  Beta virt. eigenvalues --    0.60834   0.61119   0.62303   0.62805   0.63711
  Beta virt. eigenvalues --    0.63790   0.64476   0.64913   0.66150   0.66378
  Beta virt. eigenvalues --    0.67175   0.69055   0.69749   0.69909   0.71294
  Beta virt. eigenvalues --    0.73309   0.73711   0.75024   0.76766   0.77276
  Beta virt. eigenvalues --    0.78398   0.80724   0.82521   0.83622   0.84897
  Beta virt. eigenvalues --    0.85437   0.86437   0.86940   0.88079   0.88465
  Beta virt. eigenvalues --    0.89222   0.89878   0.90587   0.91111   0.91240
  Beta virt. eigenvalues --    0.91910   0.92594   0.93936   0.94556   0.95227
  Beta virt. eigenvalues --    0.95458   0.96449   0.97256   0.97889   0.98128
  Beta virt. eigenvalues --    0.99365   0.99857   1.00322   1.00849   1.01576
  Beta virt. eigenvalues --    1.02251   1.03320   1.04134   1.05431   1.06275
  Beta virt. eigenvalues --    1.07829   1.08600   1.09177   1.11459   1.12601
  Beta virt. eigenvalues --    1.13377   1.15475   1.16863   1.18893   1.19760
  Beta virt. eigenvalues --    1.22772   1.24847   1.26763   1.27338   1.29472
  Beta virt. eigenvalues --    1.30460   1.30768   1.31925   1.35413   1.37618
  Beta virt. eigenvalues --    1.42250   1.43941   1.44691   1.45660   1.46185
  Beta virt. eigenvalues --    1.47817   1.49835   1.51927   1.52801   1.55634
  Beta virt. eigenvalues --    1.56828   1.58891   1.60422   1.63703   1.67790
  Beta virt. eigenvalues --    1.69604   1.71347   1.74433   1.76741   1.77700
  Beta virt. eigenvalues --    1.78877   1.81860   1.84317   1.84879   1.86085
  Beta virt. eigenvalues --    1.87039   1.89202   1.90114   1.90768   1.93658
  Beta virt. eigenvalues --    1.93968   1.95480   1.96898   1.97852   1.98678
  Beta virt. eigenvalues --    1.99412   1.99758   2.00279   2.01322   2.03203
  Beta virt. eigenvalues --    2.03911   2.06668   2.07318   2.10021   2.11432
  Beta virt. eigenvalues --    2.14315   2.14766   2.15307   2.16017   2.16356
  Beta virt. eigenvalues --    2.19798   2.22365   2.24237   2.25439   2.26832
  Beta virt. eigenvalues --    2.27769   2.29187   2.30754   2.31419   2.36084
  Beta virt. eigenvalues --    2.36533   2.37494   2.39625   2.40976   2.44210
  Beta virt. eigenvalues --    2.44874   2.46262   2.50268   2.51697   2.54409
  Beta virt. eigenvalues --    2.59813   2.60362   2.64447   2.65651   2.66780
  Beta virt. eigenvalues --    2.67593   2.70667   2.73465   2.74815   2.81369
  Beta virt. eigenvalues --    2.81662   2.83236   2.85311   2.87599   2.91935
  Beta virt. eigenvalues --    3.00228   3.16066   3.37931   3.92846   3.94699
  Beta virt. eigenvalues --    3.99048   4.03393   4.09055   4.11187   4.13130
  Beta virt. eigenvalues --    4.14947   4.19773   4.22278   4.27657   4.29668
  Beta virt. eigenvalues --    4.37831   4.38248   4.39340   4.48450   4.55609
  Beta virt. eigenvalues --    4.70335
          Condensed to atoms (all electrons):
               1          2          3          4          5          6
     1  C    4.940511   0.530002  -0.079528  -0.037903  -0.040974   0.549005
     2  C    0.530002   4.610579   0.468270  -0.003507  -0.035376  -0.015793
     3  C   -0.079528   0.468270   5.278572   0.473470  -0.038947  -0.039328
     4  C   -0.037903  -0.003507   0.473470   4.929797   0.563837  -0.033502
     5  C   -0.040974  -0.035376  -0.038947   0.563837   4.858946   0.532808
     6  C    0.549005  -0.015793  -0.039328  -0.033502   0.532808   4.891440
     7  H    0.357981  -0.029823   0.006611   0.000015   0.003805  -0.039161
     8  H    0.000526   0.002295  -0.037106   0.368434  -0.031429   0.003482
     9  H    0.003762   0.000614   0.004420  -0.038069   0.370801  -0.036161
    10  H   -0.033860   0.002914   0.000597   0.004094  -0.036684   0.368900
    11  S    0.006321  -0.075035   0.286560  -0.053474   0.003058   0.000323
    12  N   -0.063169   0.389843  -0.088226   0.008246   0.000013   0.004395
    13  C    0.007561  -0.084384  -0.046377   0.003701  -0.000117  -0.000143
    14  S   -0.000323  -0.001409   0.002807  -0.000008   0.000001   0.000007
    15  O   -0.000001  -0.000007  -0.000022   0.000000  -0.000000  -0.000000
    16  O    0.000000  -0.000108   0.000203  -0.000000   0.000000   0.000000
    17  C    0.000005  -0.000239  -0.000064   0.000000  -0.000000  -0.000000
    18  C   -0.000000   0.000001   0.000000  -0.000000   0.000000   0.000000
    19  H    0.000001   0.000013  -0.000016  -0.000000   0.000000  -0.000000
    20  H   -0.000007   0.000100   0.000000  -0.000000   0.000000  -0.000000
    21  C    0.000000  -0.000000   0.000000   0.000000  -0.000000  -0.000000
    22  H   -0.000000   0.000000  -0.000000  -0.000000   0.000000  -0.000000
    23  H    0.000000   0.000000  -0.000000  -0.000000   0.000000  -0.000000
    24  C   -0.000000  -0.000000  -0.000000  -0.000000   0.000000   0.000000
    25  H    0.000000   0.000000   0.000000   0.000000   0.000000   0.000000
    26  H   -0.000000   0.000000   0.000000  -0.000000   0.000000   0.000000
    27  H    0.000000   0.000000   0.000000   0.000000  -0.000000  -0.000000
    28  C    0.000000   0.000000   0.000000   0.000000  -0.000000  -0.000000
    29  C   -0.000000   0.000000  -0.000000  -0.000000   0.000000   0.000000
    30  H    0.000000   0.000000   0.000000   0.000000   0.000000  -0.000000
    31  H   -0.000000  -0.000000   0.000000  -0.000000   0.000000   0.000000
    32  H    0.000000  -0.000000   0.000000   0.000000  -0.000000  -0.000000
    33  H   -0.000000  -0.000000   0.000000   0.000000  -0.000000   0.000000
    34  H    0.000000   0.000000  -0.000000   0.000000   0.000000  -0.000000
               7          8          9         10         11         12
     1  C    0.357981   0.000526   0.003762  -0.033860   0.006321  -0.063169
     2  C   -0.029823   0.002295   0.000614   0.002914  -0.075035   0.389843
     3  C    0.006611  -0.037106   0.004420   0.000597   0.286560  -0.088226
     4  C    0.000015   0.368434  -0.038069   0.004094  -0.053474   0.008246
     5  C    0.003805  -0.031429   0.370801  -0.036684   0.003058   0.000013
     6  C   -0.039161   0.003482  -0.036161   0.368900   0.000323   0.004395
     7  H    0.514706   0.000013  -0.000118  -0.004190  -0.000144  -0.002288
     8  H    0.000013   0.510999  -0.004183  -0.000131  -0.001947  -0.000107
     9  H   -0.000118  -0.004183   0.525653  -0.004195  -0.000122   0.000002
    10  H   -0.004190  -0.000131  -0.004195   0.524646   0.000016  -0.000087
    11  S   -0.000144  -0.001947  -0.000122   0.000016  15.304441  -0.080444
    12  N   -0.002288  -0.000107   0.000002  -0.000087  -0.080444   6.917404
    13  C   -0.000102  -0.000014   0.000000   0.000004   0.268468   0.347009
    14  S    0.000012   0.000001  -0.000000  -0.000000  -0.022325  -0.008861
    15  O    0.000000  -0.000000   0.000000   0.000000   0.000785  -0.000733
    16  O    0.000000   0.000000  -0.000000   0.000000   0.013889   0.002032
    17  C   -0.000001  -0.000000   0.000000   0.000000   0.001011  -0.002791
    18  C    0.000000   0.000000  -0.000000  -0.000000  -0.000046   0.000061
    19  H    0.000000  -0.000000   0.000000   0.000000   0.000419   0.000275
    20  H    0.000003   0.000000   0.000000  -0.000000   0.000274   0.003490
    21  C   -0.000000  -0.000000   0.000000   0.000000   0.000001  -0.000003
    22  H   -0.000000  -0.000000   0.000000  -0.000000   0.000001  -0.000005
    23  H   -0.000000  -0.000000  -0.000000  -0.000000  -0.000003  -0.000003
    24  C    0.000000   0.000000  -0.000000  -0.000000  -0.000000  -0.000000
    25  H   -0.000000   0.000000  -0.000000  -0.000000   0.000000   0.000000
    26  H   -0.000000   0.000000  -0.000000  -0.000000  -0.000000   0.000000
    27  H    0.000000   0.000000   0.000000   0.000000   0.000000  -0.000000
    28  C    0.000000  -0.000000   0.000000   0.000000  -0.000000  -0.000000
    29  C    0.000000   0.000000  -0.000000  -0.000000   0.000000   0.000000
    30  H    0.000000   0.000000   0.000000  -0.000000   0.000000   0.000000
    31  H   -0.000000   0.000000  -0.000000   0.000000  -0.000000   0.000000
    32  H    0.000000   0.000000   0.000000   0.000000  -0.000000  -0.000000
    33  H   -0.000000  -0.000000   0.000000   0.000000   0.000000   0.000000
    34  H    0.000000   0.000000  -0.000000  -0.000000  -0.000000   0.000000
              13         14         15         16         17         18
     1  C    0.007561  -0.000323  -0.000001   0.000000   0.000005  -0.000000
     2  C   -0.084384  -0.001409  -0.000007  -0.000108  -0.000239   0.000001
     3  C   -0.046377   0.002807  -0.000022   0.000203  -0.000064   0.000000
     4  C    0.003701  -0.000008   0.000000  -0.000000   0.000000  -0.000000
     5  C   -0.000117   0.000001  -0.000000   0.000000  -0.000000   0.000000
     6  C   -0.000143   0.000007  -0.000000   0.000000  -0.000000   0.000000
     7  H   -0.000102   0.000012   0.000000   0.000000  -0.000001   0.000000
     8  H   -0.000014   0.000001  -0.000000   0.000000  -0.000000   0.000000
     9  H    0.000000  -0.000000   0.000000  -0.000000   0.000000  -0.000000
    10  H    0.000004  -0.000000   0.000000   0.000000   0.000000  -0.000000
    11  S    0.268468  -0.022325   0.000785   0.013889   0.001011  -0.000046
    12  N    0.347009  -0.008861  -0.000733   0.002032  -0.002791   0.000061
    13  C    5.796614   0.077366  -0.061002  -0.054920  -0.065610   0.003120
    14  S    0.077366  13.702255   0.478438   0.433703   0.197921  -0.023445
    15  O   -0.061002   0.478438   8.218532  -0.047029  -0.063183  -0.002761
    16  O   -0.054920   0.433703  -0.047029   8.268275  -0.057922  -0.004465
    17  C   -0.065610   0.197921  -0.063183  -0.057922   5.654201   0.295788
    18  C    0.003120  -0.023445  -0.002761  -0.004465   0.295788   5.093761
    19  H    0.001082  -0.012178   0.001791   0.000181   0.346427  -0.027168
    20  H   -0.001058  -0.010841  -0.000299   0.001703   0.346023  -0.026536
    21  C   -0.000105   0.003120  -0.000039  -0.000068  -0.054714   0.378425
    22  H    0.000025   0.001800  -0.000447   0.005885  -0.051140   0.385769
    23  H    0.000086   0.000299   0.006520  -0.000185  -0.047578   0.385953
    24  C   -0.000000  -0.000058  -0.000001   0.000004  -0.002245  -0.046536
    25  H    0.000001  -0.000062   0.000005  -0.000001   0.000087  -0.041102
    26  H    0.000001  -0.000100   0.000000   0.000001   0.001933  -0.001303
    27  H    0.000000   0.000028   0.000000  -0.000004  -0.000948  -0.003040
    28  C   -0.000000   0.000003   0.000000  -0.000000   0.000030   0.003073
    29  C    0.000000  -0.000000  -0.000000   0.000000   0.000002  -0.000123
    30  H    0.000000   0.000000   0.000000  -0.000000  -0.000013   0.000141
    31  H   -0.000000  -0.000000  -0.000000   0.000000   0.000010  -0.000055
    32  H   -0.000000   0.000000   0.000000  -0.000000  -0.000000   0.000001
    33  H   -0.000000  -0.000000  -0.000000  -0.000000  -0.000000  -0.000002
    34  H    0.000000   0.000000  -0.000000   0.000000   0.000000   0.000003
              19         20         21         22         23         24
     1  C    0.000001  -0.000007   0.000000  -0.000000   0.000000  -0.000000
     2  C    0.000013   0.000100  -0.000000   0.000000   0.000000  -0.000000
     3  C   -0.000016   0.000000   0.000000  -0.000000  -0.000000  -0.000000
     4  C   -0.000000  -0.000000   0.000000  -0.000000  -0.000000  -0.000000
     5  C    0.000000   0.000000  -0.000000   0.000000   0.000000   0.000000
     6  C   -0.000000  -0.000000  -0.000000  -0.000000  -0.000000   0.000000
     7  H    0.000000   0.000003  -0.000000  -0.000000  -0.000000   0.000000
     8  H   -0.000000   0.000000  -0.000000  -0.000000  -0.000000   0.000000
     9  H    0.000000   0.000000   0.000000   0.000000  -0.000000  -0.000000
    10  H    0.000000  -0.000000   0.000000  -0.000000  -0.000000  -0.000000
    11  S    0.000419   0.000274   0.000001   0.000001  -0.000003  -0.000000
    12  N    0.000275   0.003490  -0.000003  -0.000005  -0.000003  -0.000000
    13  C    0.001082  -0.001058  -0.000105   0.000025   0.000086  -0.000000
    14  S   -0.012178  -0.010841   0.003120   0.001800   0.000299  -0.000058
    15  O    0.001791  -0.000299  -0.000039  -0.000447   0.006520  -0.000001
    16  O    0.000181   0.001703  -0.000068   0.005885  -0.000185   0.000004
    17  C    0.346427   0.346023  -0.054714  -0.051140  -0.047578  -0.002245
    18  C   -0.027168  -0.026536   0.378425   0.385769   0.385953  -0.046536
    19  H    0.497823  -0.022402  -0.006793  -0.002987   0.004047   0.002868
    20  H   -0.022402   0.476335  -0.002603   0.004197  -0.003087  -0.000105
    21  C   -0.006793  -0.002603   5.232031  -0.041859  -0.030270   0.380910
    22  H   -0.002987   0.004197  -0.041859   0.516554  -0.022958  -0.004300
    23  H    0.004047  -0.003087  -0.030270  -0.022958   0.497626   0.003511
    24  C    0.002868  -0.000105   0.380910  -0.004300   0.003511   5.051389
    25  H    0.000063   0.001290   0.379524   0.003656  -0.003663  -0.043750
    26  H    0.000795   0.000096  -0.047561  -0.000232  -0.000144   0.370763
    27  H    0.000354   0.000051  -0.045517   0.005246   0.000140   0.380486
    28  C   -0.000042  -0.000014  -0.040729   0.000051  -0.000089   0.368236
    29  C    0.000003   0.000000   0.004128  -0.000005   0.000001  -0.049971
    30  H    0.000004   0.000001  -0.003058   0.000006   0.000005  -0.043062
    31  H    0.000000   0.000000   0.001177  -0.000004  -0.000012  -0.042871
    32  H   -0.000000  -0.000000  -0.000118   0.000000  -0.000000   0.004323
    33  H   -0.000001   0.000000   0.000022   0.000000  -0.000000  -0.004733
    34  H    0.000000  -0.000000   0.000081  -0.000002   0.000000  -0.004615
              25         26         27         28         29         30
     1  C    0.000000  -0.000000   0.000000   0.000000  -0.000000   0.000000
     2  C    0.000000   0.000000   0.000000   0.000000   0.000000   0.000000
     3  C    0.000000   0.000000   0.000000   0.000000  -0.000000   0.000000
     4  C    0.000000  -0.000000   0.000000   0.000000  -0.000000   0.000000
     5  C    0.000000   0.000000  -0.000000  -0.000000   0.000000   0.000000
     6  C    0.000000   0.000000  -0.000000  -0.000000   0.000000  -0.000000
     7  H   -0.000000  -0.000000   0.000000   0.000000   0.000000   0.000000
     8  H    0.000000   0.000000   0.000000  -0.000000   0.000000   0.000000
     9  H   -0.000000  -0.000000   0.000000   0.000000  -0.000000   0.000000
    10  H   -0.000000  -0.000000   0.000000   0.000000  -0.000000  -0.000000
    11  S    0.000000  -0.000000   0.000000  -0.000000   0.000000   0.000000
    12  N    0.000000   0.000000  -0.000000  -0.000000   0.000000   0.000000
    13  C    0.000001   0.000001   0.000000  -0.000000   0.000000   0.000000
    14  S   -0.000062  -0.000100   0.000028   0.000003  -0.000000   0.000000
    15  O    0.000005   0.000000   0.000000   0.000000  -0.000000   0.000000
    16  O   -0.000001   0.000001  -0.000004  -0.000000   0.000000  -0.000000
    17  C    0.000087   0.001933  -0.000948   0.000030   0.000002  -0.000013
    18  C   -0.041102  -0.001303  -0.003040   0.003073  -0.000123   0.000141
    19  H    0.000063   0.000795   0.000354  -0.000042   0.000003   0.000004
    20  H    0.001290   0.000096   0.000051  -0.000014   0.000000   0.000001
    21  C    0.379524  -0.047561  -0.045517  -0.040729   0.004128  -0.003058
    22  H    0.003656  -0.000232   0.005246   0.000051  -0.000005   0.000006
    23  H   -0.003663  -0.000144   0.000140  -0.000089   0.000001   0.000005
    24  C   -0.043750   0.370763   0.380486   0.368236  -0.049971  -0.043062
    25  H    0.542260   0.000323   0.004314  -0.003742   0.000075   0.003771
    26  H    0.000323   0.603321  -0.039904  -0.042842  -0.001805  -0.005219
    27  H    0.004314  -0.039904   0.572786  -0.034438  -0.002993   0.005150
    28  C   -0.003742  -0.042842  -0.034438   5.012589   0.355068   0.388526
    29  C    0.000075  -0.001805  -0.002993   0.355068   5.102808  -0.038485
    30  H    0.003771  -0.005219   0.005150   0.388526  -0.038485   0.577489
    31  H    0.000047   0.005676  -0.005117   0.387589  -0.036369  -0.034500
    32  H    0.000000  -0.000028  -0.000033  -0.028995   0.381005  -0.002832
    33  H    0.000003   0.004862  -0.000345  -0.036528   0.383210  -0.004168
    34  H    0.000005  -0.000363   0.004092  -0.035944   0.383916   0.004741
              31         32         33         34
     1  C   -0.000000   0.000000  -0.000000   0.000000
     2  C   -0.000000  -0.000000  -0.000000   0.000000
     3  C    0.000000   0.000000   0.000000  -0.000000
     4  C   -0.000000   0.000000   0.000000   0.000000
     5  C    0.000000  -0.000000  -0.000000   0.000000
     6  C    0.000000  -0.000000   0.000000  -0.000000
     7  H   -0.000000   0.000000  -0.000000   0.000000
     8  H    0.000000   0.000000  -0.000000   0.000000
     9  H   -0.000000   0.000000   0.000000  -0.000000
    10  H    0.000000   0.000000   0.000000  -0.000000
    11  S   -0.000000  -0.000000   0.000000  -0.000000
    12  N    0.000000  -0.000000   0.000000   0.000000
    13  C   -0.000000  -0.000000  -0.000000   0.000000
    14  S   -0.000000   0.000000  -0.000000   0.000000
    15  O   -0.000000   0.000000  -0.000000  -0.000000
    16  O    0.000000  -0.000000  -0.000000   0.000000
    17  C    0.000010  -0.000000  -0.000000   0.000000
    18  C   -0.000055   0.000001  -0.000002   0.000003
    19  H    0.000000  -0.000000  -0.000001   0.000000
    20  H    0.000000  -0.000000   0.000000  -0.000000
    21  C    0.001177  -0.000118   0.000022   0.000081
    22  H   -0.000004   0.000000   0.000000  -0.000002
    23  H   -0.000012  -0.000000  -0.000000   0.000000
    24  C   -0.042871   0.004323  -0.004733  -0.004615
    25  H    0.000047   0.000000   0.000003   0.000005
    26  H    0.005676  -0.000028   0.004862  -0.000363
    27  H   -0.005117  -0.000033  -0.000345   0.004092
    28  C    0.387589  -0.028995  -0.036528  -0.035944
    29  C   -0.036369   0.381005   0.383210   0.383916
    30  H   -0.034500  -0.002832  -0.004168   0.004741
    31  H    0.566336  -0.002623   0.004699  -0.004088
    32  H   -0.002623   0.540333  -0.027693  -0.027635
    33  H    0.004699  -0.027693   0.554810  -0.029955
    34  H   -0.004088  -0.027635  -0.029955   0.550547
          Atomic-Atomic Spin Densities.
               1          2          3          4          5          6
     1  C    0.000673   0.000054   0.000037   0.000005  -0.000037  -0.000064
     2  C    0.000054  -0.000020   0.000090  -0.000024   0.000000   0.000011
     3  C    0.000037   0.000090   0.001026   0.000041  -0.000049  -0.000011
     4  C    0.000005  -0.000024   0.000041  -0.000248  -0.000087   0.000001
     5  C   -0.000037   0.000000  -0.000049  -0.000087   0.000838   0.000068
     6  C   -0.000064   0.000011  -0.000011   0.000001   0.000068  -0.000293
     7  H   -0.000000   0.000001  -0.000000   0.000000   0.000000   0.000001
     8  H    0.000000   0.000000   0.000001   0.000004  -0.000001  -0.000000
     9  H    0.000000  -0.000000   0.000000   0.000004  -0.000009   0.000002
    10  H   -0.000001  -0.000000   0.000000   0.000000  -0.000002   0.000002
    11  S   -0.000002  -0.000200  -0.000256  -0.000017   0.000004  -0.000000
    12  N   -0.000045   0.000144  -0.000058  -0.000004   0.000001   0.000001
    13  C    0.000005  -0.000340   0.000018   0.000015  -0.000002  -0.000001
    14  S    0.000000  -0.000154  -0.000023   0.000001  -0.000000  -0.000000
    15  O   -0.000000   0.000001  -0.000000   0.000000   0.000000   0.000000
    16  O    0.000000   0.000001  -0.000000   0.000000   0.000000  -0.000000
    17  C    0.000000  -0.000014   0.000001   0.000000  -0.000000  -0.000000
    18  C    0.000000  -0.000000  -0.000000   0.000000  -0.000000  -0.000000
    19  H   -0.000000   0.000001   0.000000  -0.000000   0.000000   0.000000
    20  H    0.000000  -0.000004   0.000000   0.000000  -0.000000  -0.000000
    21  C    0.000000  -0.000000   0.000000   0.000000  -0.000000  -0.000000
    22  H    0.000000  -0.000000  -0.000000   0.000000  -0.000000  -0.000000
    23  H    0.000000  -0.000000   0.000000   0.000000  -0.000000  -0.000000
    24  C   -0.000000   0.000000  -0.000000  -0.000000   0.000000   0.000000
    25  H    0.000000  -0.000000   0.000000   0.000000  -0.000000  -0.000000
    26  H   -0.000000   0.000000  -0.000000  -0.000000   0.000000   0.000000
    27  H    0.000000  -0.000000   0.000000   0.000000  -0.000000  -0.000000
    28  C    0.000000  -0.000000   0.000000   0.000000  -0.000000  -0.000000
    29  C   -0.000000   0.000000  -0.000000  -0.000000   0.000000   0.000000
    30  H    0.000000  -0.000000   0.000000   0.000000  -0.000000  -0.000000
    31  H   -0.000000   0.000000  -0.000000  -0.000000   0.000000   0.000000
    32  H    0.000000  -0.000000   0.000000   0.000000  -0.000000  -0.000000
    33  H   -0.000000   0.000000  -0.000000  -0.000000   0.000000   0.000000
    34  H   -0.000000   0.000000  -0.000000  -0.000000   0.000000   0.000000
               7          8          9         10         11         12
     1  C   -0.000000   0.000000   0.000000  -0.000001  -0.000002  -0.000045
     2  C    0.000001   0.000000  -0.000000  -0.000000  -0.000200   0.000144
     3  C   -0.000000   0.000001   0.000000   0.000000  -0.000256  -0.000058
     4  C    0.000000   0.000004   0.000004   0.000000  -0.000017  -0.000004
     5  C    0.000000  -0.000001  -0.000009  -0.000002   0.000004   0.000001
     6  C    0.000001  -0.000000   0.000002   0.000002  -0.000000   0.000001
     7  H   -0.000031  -0.000000   0.000000  -0.000000   0.000000  -0.000001
     8  H   -0.000000   0.000005   0.000000  -0.000000   0.000000   0.000000
     9  H    0.000000   0.000000  -0.000030   0.000000  -0.000000  -0.000000
    10  H   -0.000000  -0.000000   0.000000   0.000010   0.000000   0.000000
    11  S    0.000000   0.000000  -0.000000   0.000000   0.001918  -0.000129
    12  N   -0.000001   0.000000  -0.000000   0.000000  -0.000129   0.002547
    13  C    0.000000  -0.000000   0.000000   0.000000  -0.001310   0.000371
    14  S    0.000000  -0.000000   0.000000   0.000000   0.000903  -0.000535
    15  O    0.000000   0.000000   0.000000  -0.000000   0.000004   0.000012
    16  O    0.000000  -0.000000  -0.000000  -0.000000  -0.000010   0.000004
    17  C   -0.000000  -0.000000   0.000000   0.000000   0.000003  -0.000220
    18  C    0.000000  -0.000000   0.000000   0.000000   0.000005  -0.000002
    19  H   -0.000000   0.000000  -0.000000  -0.000000  -0.000010   0.000013
    20  H    0.000000  -0.000000   0.000000   0.000000   0.000006  -0.000021
    21  C    0.000000  -0.000000   0.000000   0.000000   0.000001  -0.000002
    22  H    0.000000  -0.000000   0.000000   0.000000   0.000003  -0.000001
    23  H    0.000000  -0.000000   0.000000   0.000000   0.000001  -0.000001
    24  C    0.000000   0.000000  -0.000000  -0.000000   0.000000   0.000000
    25  H   -0.000000  -0.000000   0.000000   0.000000   0.000000  -0.000000
    26  H   -0.000000   0.000000  -0.000000  -0.000000  -0.000000   0.000000
    27  H    0.000000  -0.000000   0.000000   0.000000   0.000000  -0.000000
    28  C   -0.000000  -0.000000   0.000000   0.000000   0.000000  -0.000000
    29  C   -0.000000   0.000000  -0.000000  -0.000000  -0.000000   0.000000
    30  H    0.000000  -0.000000   0.000000   0.000000   0.000000  -0.000000
    31  H   -0.000000   0.000000  -0.000000  -0.000000  -0.000000   0.000000
    32  H    0.000000  -0.000000   0.000000   0.000000   0.000000  -0.000000
    33  H   -0.000000   0.000000  -0.000000  -0.000000   0.000000   0.000000
    34  H    0.000000   0.000000  -0.000000  -0.000000   0.000000   0.000000
              13         14         15         16         17         18
     1  C    0.000005   0.000000  -0.000000   0.000000   0.000000   0.000000
     2  C   -0.000340  -0.000154   0.000001   0.000001  -0.000014  -0.000000
     3  C    0.000018  -0.000023  -0.000000  -0.000000   0.000001  -0.000000
     4  C    0.000015   0.000001   0.000000   0.000000   0.000000   0.000000
     5  C   -0.000002  -0.000000   0.000000   0.000000  -0.000000  -0.000000
     6  C   -0.000001  -0.000000   0.000000  -0.000000  -0.000000  -0.000000
     7  H    0.000000   0.000000   0.000000   0.000000  -0.000000   0.000000
     8  H   -0.000000  -0.000000   0.000000  -0.000000  -0.000000  -0.000000
     9  H    0.000000   0.000000   0.000000  -0.000000   0.000000   0.000000
    10  H    0.000000   0.000000  -0.000000  -0.000000   0.000000   0.000000
    11  S   -0.001310   0.000903   0.000004  -0.000010   0.000003   0.000005
    12  N    0.000371  -0.000535   0.000012   0.000004  -0.000220  -0.000002
    13  C    0.013271  -0.010269   0.000108   0.000577   0.000824  -0.000168
    14  S   -0.010269   0.030417  -0.001423  -0.003544  -0.014073   0.001729
    15  O    0.000108  -0.001423   0.001106   0.000052   0.001226  -0.000185
    16  O    0.000577  -0.003544   0.000052   0.003960   0.001480  -0.000216
    17  C    0.000824  -0.014073   0.001226   0.001480   0.122711  -0.010138
    18  C   -0.000168   0.001729  -0.000185  -0.000216  -0.010138  -0.074976
    19  H    0.000155  -0.000682   0.000003   0.000083   0.001075   0.000881
    20  H   -0.000225   0.001000  -0.000071  -0.000028  -0.002052   0.000968
    21  C   -0.000050   0.001807  -0.000020  -0.000027  -0.033893  -0.014973
    22  H   -0.000066   0.002217  -0.000058  -0.000491  -0.013704   0.010910
    23  H   -0.000030   0.001030  -0.000175  -0.000040  -0.007779   0.007132
    24  C   -0.000000  -0.000012  -0.000000   0.000000  -0.000320  -0.001084
    25  H   -0.000000   0.000041  -0.000001  -0.000000  -0.000870   0.001970
    26  H    0.000003  -0.000155   0.000000   0.000002   0.002283  -0.000029
    27  H   -0.000001   0.000074  -0.000000  -0.000005  -0.001193   0.000853
    28  C   -0.000000   0.000002  -0.000000  -0.000000  -0.000078   0.000090
    29  C    0.000000  -0.000000   0.000000   0.000000   0.000003  -0.000003
    30  H   -0.000000   0.000000  -0.000000  -0.000000  -0.000008   0.000012
    31  H    0.000000  -0.000000   0.000000   0.000000   0.000011  -0.000006
    32  H   -0.000000   0.000000  -0.000000  -0.000000  -0.000000   0.000000
    33  H    0.000000  -0.000000   0.000000   0.000000   0.000000   0.000000
    34  H    0.000000  -0.000000   0.000000   0.000000   0.000000   0.000000
              19         20         21         22         23         24
     1  C   -0.000000   0.000000   0.000000   0.000000   0.000000  -0.000000
     2  C    0.000001  -0.000004  -0.000000  -0.000000  -0.000000   0.000000
     3  C    0.000000   0.000000   0.000000  -0.000000   0.000000  -0.000000
     4  C   -0.000000   0.000000   0.000000   0.000000   0.000000  -0.000000
     5  C    0.000000  -0.000000  -0.000000  -0.000000  -0.000000   0.000000
     6  C    0.000000  -0.000000  -0.000000  -0.000000  -0.000000   0.000000
     7  H   -0.000000   0.000000   0.000000   0.000000   0.000000   0.000000
     8  H    0.000000  -0.000000  -0.000000  -0.000000  -0.000000   0.000000
     9  H   -0.000000   0.000000   0.000000   0.000000   0.000000  -0.000000
    10  H   -0.000000   0.000000   0.000000   0.000000   0.000000  -0.000000
    11  S   -0.000010   0.000006   0.000001   0.000003   0.000001   0.000000
    12  N    0.000013  -0.000021  -0.000002  -0.000001  -0.000001   0.000000
    13  C    0.000155  -0.000225  -0.000050  -0.000066  -0.000030  -0.000000
    14  S   -0.000682   0.001000   0.001807   0.002217   0.001030  -0.000012
    15  O    0.000003  -0.000071  -0.000020  -0.000058  -0.000175  -0.000000
    16  O    0.000083  -0.000028  -0.000027  -0.000491  -0.000040   0.000000
    17  C    0.001075  -0.002052  -0.033893  -0.013704  -0.007779  -0.000320
    18  C    0.000881   0.000968  -0.014973   0.010910   0.007132  -0.001084
    19  H   -0.002761   0.000159  -0.001471  -0.000275  -0.000087  -0.000034
    20  H    0.000159  -0.003437   0.001271   0.000058   0.000160   0.000015
    21  C   -0.001471   0.001271   1.210469  -0.011369  -0.005251  -0.033844
    22  H   -0.000275   0.000058  -0.011369   0.022794   0.002671   0.000960
    23  H   -0.000087   0.000160  -0.005251   0.002671   0.007155   0.000111
    24  C   -0.000034   0.000015  -0.033844   0.000960   0.000111  -0.075770
    25  H   -0.000024  -0.000050  -0.008942   0.000158   0.000535   0.002759
    26  H    0.000377  -0.000101  -0.029647  -0.000733  -0.000085   0.010001
    27  H   -0.000099   0.000011  -0.011678   0.001928   0.000090   0.005438
    28  C   -0.000004   0.000001  -0.012316   0.000127   0.000011   0.009037
    29  C    0.000000  -0.000000   0.000750  -0.000006  -0.000000   0.000247
    30  H   -0.000000   0.000000  -0.000406   0.000004   0.000001   0.000615
    31  H    0.000000  -0.000000   0.005135  -0.000037  -0.000006  -0.000992
    32  H   -0.000000   0.000000  -0.000012   0.000000   0.000000  -0.000057
    33  H    0.000000  -0.000000  -0.000002  -0.000000  -0.000000   0.000043
    34  H    0.000000  -0.000000   0.000010  -0.000000  -0.000000   0.000009
              25         26         27         28         29         30
     1  C    0.000000  -0.000000   0.000000   0.000000  -0.000000   0.000000
     2  C   -0.000000   0.000000  -0.000000  -0.000000   0.000000  -0.000000
     3  C    0.000000  -0.000000   0.000000   0.000000  -0.000000   0.000000
     4  C    0.000000  -0.000000   0.000000   0.000000  -0.000000   0.000000
     5  C   -0.000000   0.000000  -0.000000  -0.000000   0.000000  -0.000000
     6  C   -0.000000   0.000000  -0.000000  -0.000000   0.000000  -0.000000
     7  H   -0.000000  -0.000000   0.000000  -0.000000  -0.000000   0.000000
     8  H   -0.000000   0.000000  -0.000000  -0.000000   0.000000  -0.000000
     9  H    0.000000  -0.000000   0.000000   0.000000  -0.000000   0.000000
    10  H    0.000000  -0.000000   0.000000   0.000000  -0.000000   0.000000
    11  S    0.000000  -0.000000   0.000000   0.000000  -0.000000   0.000000
    12  N   -0.000000   0.000000  -0.000000  -0.000000   0.000000  -0.000000
    13  C   -0.000000   0.000003  -0.000001  -0.000000   0.000000  -0.000000
    14  S    0.000041  -0.000155   0.000074   0.000002  -0.000000   0.000000
    15  O   -0.000001   0.000000  -0.000000  -0.000000   0.000000  -0.000000
    16  O   -0.000000   0.000002  -0.000005  -0.000000   0.000000  -0.000000
    17  C   -0.000870   0.002283  -0.001193  -0.000078   0.000003  -0.000008
    18  C    0.001970  -0.000029   0.000853   0.000090  -0.000003   0.000012
    19  H   -0.000024   0.000377  -0.000099  -0.000004   0.000000  -0.000000
    20  H   -0.000050  -0.000101   0.000011   0.000001  -0.000000   0.000000
[...]
 01329,-0.00000445,0.00003170,-0.00001479,0.00003025,-0.00005752,-0.000
 07528,0.00002485,-0.00004964,0.00025533,-0.00046643,-0.00002571,0.0000
 2676,-0.00000187,-0.00000071,0.00000258,0.00000978,-0.00130136,-0.0004
 3614,0.00051408,0.00006089,-0.00000117,0.00000482,-0.00002700,-0.00003
 814,0.00003490,-0.00712891,-0.00957757,-0.00759590,0.00002430,-0.00014
 759,-0.00016340,0.00188221,0.00118338,0.00032468,0.00081537,0.00011526
 ,-0.00043938,-0.02623231,-0.14468291,-0.06018886,-0.01426533,0.5424357
 5,-0.00000615,0.00000997,-0.00001232,0.00000077,-0.00000350,-0.0000059
 1,0.00002684,-0.00001221,-0.00001515,-0.00001301,-0.00000345,0.0000140
 0,0.00000944,-0.00000981,0.00000844,0.00001242,-0.00000182,-0.00001270
 ,-0.00000249,0.00000135,-0.00000047,0.00000139,0.00000092,-0.00000192,
 0.00000338,-0.00000134,0.00000104,0.00000271,-0.00000175,0.00000091,0.
 00002684,-0.00001245,-0.00000440,0.00002909,0.00000445,-0.00001988,0.0
 0002525,0.00005605,0.00003182,-0.00028138,-0.00021826,0.00020126,0.000
 12687,0.00008182,-0.00001763,0.00006925,0.00006736,-0.00015004,-0.0000
 4291,0.00007320,-0.00003798,0.00012739,0.00054932,0.00079385,-0.000042
 69,-0.00000891,0.00002060,0.00000043,0.00001434,-0.00000512,0.00168806
 ,0.00043930,-0.00125659,-0.00003723,-0.00003689,0.00000077,0.00019290,
 0.00018835,-0.00007664,0.00030677,0.00363461,0.00542546,0.00012392,0.0
 0000084,0.00039413,0.00022486,0.00029404,0.00000376,0.00120292,0.00100
 652,0.00086825,-0.02637269,-0.06097427,-0.13992675,-0.01906007,-0.0418
 5389,0.54572291,0.00000054,-0.00000166,0.00000639,-0.00000074,0.000000
 17,-0.00000017,0.00000220,-0.00000513,0.00000286,0.00000031,0.00000163
 ,-0.00000479,-0.00000208,0.00000168,0.00000025,-0.00000204,0.00000195,
 0.00000065,-0.00000127,-0.00000097,-0.00000151,0.00000008,-0.00000026,
 0.00000030,-0.00000068,0.00000031,-0.00000045,-0.00000156,0.00000030,-
 0.00000041,0.00000317,0.00000255,-0.00000630,-0.00000891,0.00001102,-0
 .00000755,0.00000138,0.00000378,-0.00000084,0.00012687,-0.00000008,0.0
 0003971,-0.00003680,-0.00002914,-0.00002036,-0.00004996,-0.00001258,-0
 .00004011,0.00002068,0.00008481,0.00001253,0.00000822,-0.00012124,-0.0
 0009811,0.00011030,-0.00003894,0.00002550,-0.00003483,-0.00002626,-0.0
 0001436,0.00106774,0.00118269,0.00139660,0.00004690,0.00017649,-0.0001
 4240,-0.00004587,0.00001010,-0.00008216,-0.00280450,-0.01439860,0.0305
 1678,0.00010827,-0.00023478,-0.00083383,0.00151479,0.00056411,-0.00018
 799,-0.00595913,-0.00230424,0.00117012,-0.04930336,0.00037254,0.004656
 38,-0.00029667,0.00428362,-0.01032956,0.05464092,-0.00000076,-0.000002
 17,0.00000282,0.00000125,0.00000091,-0.00000009,0.00000269,-0.00000335
 ,0.00000080,-0.00000037,0.00000033,-0.00000294,-0.00000060,0.00000007,
 -0.00000012,-0.00000104,-0.00000047,0.00000004,0.00000045,0.00000117,0
 .00000069,0.00000044,0.00000025,0.00000039,-0.00000020,0.00000067,0.00
 000008,-0.00000028,0.00000088,0.00000009,0.00000318,0.00000165,-0.0000
 0247,-0.00000719,-0.00000031,-0.00000463,0.00000200,0.00000648,-0.0000
 0591,0.00008395,0.00001328,0.00004285,-0.00002167,-0.00002520,-0.00002
 712,-0.00002928,-0.00000892,-0.00002806,0.00001927,0.00005807,-0.00000
 451,0.00005908,-0.00009586,-0.00027760,0.00006467,-0.00000999,-0.00000
 632,-0.00002440,-0.00000255,0.00000297,0.00034378,0.00048509,0.0014138
 2,0.00010147,0.00010640,-0.00010373,-0.00005335,-0.00003479,-0.0000171
 6,-0.00064384,-0.00517142,0.00951490,-0.00031151,-0.00033896,-0.000652
 16,-0.00004204,0.00050590,-0.00071363,-0.00242650,0.00025705,-0.000249
 32,0.00016698,-0.08892117,0.09365464,0.00024902,0.00941089,-0.02438309
 ,0.00462792,0.09494389,0.00000071,0.00000250,-0.00000967,-0.00000206,-
 0.00000015,-0.00000001,-0.00000405,0.00000678,-0.00000406,0.00000024,-
 0.00000276,0.00000638,0.00000326,-0.00000160,-0.00000047,0.00000186,-0
 .00000152,-0.00000054,0.00000118,0.00000092,0.00000151,-0.00000091,-0.
 00000042,-0.00000045,0.00000054,-0.00000053,0.00000027,0.00000242,-0.0
 0000099,0.00000034,-0.00000239,-0.00000512,0.00000899,0.00001294,-0.00
 001680,0.00001729,0.00001215,0.00001459,-0.00000893,-0.00010336,-0.000
 02955,-0.00005922,0.00003785,0.00002478,0.00003229,0.00004321,0.000009
 93,0.00003961,-0.00000707,-0.00002813,-0.00001969,0.00006188,0.0000591
 3,0.00040013,-0.00005518,0.00001186,-0.00000641,0.00002157,0.00002090,
 0.00000814,-0.00048393,-0.00083693,0.00056365,-0.00012765,-0.00015467,
 -0.00001385,0.00006022,0.00006287,-0.00001575,0.00079965,0.00283652,-0
 .00645701,0.00029807,0.00057712,0.00037963,0.00015705,-0.00025398,0.00
 015967,0.00127037,-0.00018420,0.00083996,0.00493937,0.09332785,-0.2724
 4226,-0.00010205,0.00788469,-0.02029717,-0.00528807,-0.09994072,0.2972
 4769,0.00000006,-0.00000473,0.00000196,0.00000655,-0.00000085,0.000002
 53,-0.00000226,-0.00000142,0.00000378,0.00000135,-0.00000077,-0.000005
 69,-0.00000137,0.00000098,-0.00000212,-0.00000305,-0.00000217,0.000003
 27,0.00000328,0.00000171,0.00000262,0.00000055,0.00000077,0.00000118,-
 0.00000097,0.00000153,0.00000050,-0.00000017,0.00000171,-0.00000011,-0
 .00000323,0.00000603,0.00000187,-0.00001249,-0.00001914,0.00000860,0.0
 0000423,0.00001527,-0.00002127,0.00020197,0.00014255,-0.00009023,-0.00
 005663,-0.00011479,-0.00003460,-0.00002654,-0.00006379,0.00004878,-0.0
 0004388,0.00005406,0.00012199,-0.00009283,-0.00014275,-0.00004790,0.00
 014600,-0.00000609,-0.00009549,0.00002272,0.00000218,-0.00000137,0.001
 55608,0.00119507,0.00105863,-0.00006696,0.00003175,0.00003316,-0.00004
 835,-0.00005858,-0.00000753,-0.02201783,0.02297437,-0.00161251,-0.0002
 8178,0.00001197,-0.00034006,-0.00575429,-0.00259486,0.00129164,0.00135
 950,0.00004727,0.00014015,-0.15174186,0.13025694,-0.00351385,0.0077067
 3,-0.00999964,0.00039434,0.00052809,-0.00126028,-0.00040390,0.16786953
 ,-0.00000016,0.00000208,-0.00000011,-0.00000062,-0.00000210,-0.0000013
 2,0.00000414,-0.00000167,-0.00000163,-0.00000157,0.00000003,0.00000193
 ,0.00000076,-0.00000011,0.00000182,0.00000190,0.00000153,-0.00000173,-
 0.00000140,-0.00000140,-0.00000121,-0.00000062,-0.00000079,-0.00000062
 ,0.00000006,-0.00000082,-0.00000026,-0.00000061,-0.00000104,-0.0000002
 4,0.00000402,-0.00000290,-0.00000123,0.00000330,0.00000368,-0.00000244
 ,0.00000875,0.00001754,0.00000399,-0.00000711,-0.00007947,-0.00000886,
 0.00000225,0.00000886,0.00000214,0.00000327,0.00001986,-0.00001292,-0.
 00000322,0.00004371,0.00002356,-0.00000140,0.00006756,0.00016709,0.000
 02692,-0.00000764,-0.00003072,0.00000410,0.00000873,0.00000009,0.00013
 512,0.00078514,0.00028054,0.00001700,-0.00000296,-0.00000302,0.0000605
 8,0.00002993,-0.00000162,-0.00876543,0.00949791,-0.00037186,0.00017635
 ,0.00000944,-0.00004573,-0.00287494,0.00008150,0.00013895,0.00075584,0
 .00051576,-0.00033158,0.13073471,-0.21092165,0.00593258,0.01374677,-0.
 01847698,0.00053009,0.00759075,-0.00998244,0.00023562,-0.13920533,0.22
 900531,-0.00000055,0.00000140,-0.00000255,-0.00000029,-0.00000025,-0.0
 0000137,0.00000422,-0.00000217,-0.00000193,-0.00000187,-0.00000019,0.0
 0000195,0.00000120,-0.00000097,0.00000113,0.00000136,-0.00000014,-0.00
 000130,0.00000015,0.00000032,0.00000006,-0.00000002,-0.00000026,-0.000
 00019,0.00000018,-0.00000022,0.00000016,0.00000037,-0.00000025,-0.0000
 0003,0.00000437,-0.00000289,0.00000120,0.00000135,0.00000091,-0.000001
 28,0.00000640,0.00001297,-0.00000309,-0.00001604,-0.00006046,0.0000624
 6,0.00001266,0.00002242,-0.00000464,-0.00000725,0.00001747,-0.00003671
 ,0.00004707,0.00003349,-0.00005787,-0.00000465,-0.00009790,0.00001627,
 -0.00001171,-0.00000813,0.00001493,-0.00000418,0.00000783,-0.00000044,
 -0.00052834,-0.00002280,0.00005010,0.00002033,0.00001717,-0.00003702,-
 0.00001710,0.00000968,-0.00000821,0.00522203,-0.00526238,-0.00008036,-
 0.00001722,0.00018098,-0.00011327,0.00176084,-0.00005548,0.00044300,-0
 .00014652,-0.00074356,0.00012999,-0.00401944,0.00617146,-0.05170964,0.
 01461816,-0.01875883,0.00015370,-0.02014694,0.02425576,-0.00013922,0.0
 0399846,-0.00345960,0.05250453,0.00000334,-0.00000843,0.00001024,0.000
 00395,0.00000209,0.00000354,-0.00001094,-0.00000020,0.00001286,0.00000
 656,0.00000387,-0.00001391,-0.00000672,0.00000614,-0.00000529,-0.00000
 909,0.00000006,0.00000971,0.00000336,-0.00000037,0.00000104,0.00000042
 ,-0.00000014,0.00000210,-0.00000307,0.00000186,-0.00000020,-0.00000251
 ,0.00000240,-0.00000116,-0.00001528,0.00001177,-0.00000028,-0.00002854
 ,-0.00000127,0.00000751,-0.00002377,-0.00002853,-0.00002328,0.00024169
 ,0.00014997,-0.00005699,-0.00009111,-0.00006889,-0.00001491,-0.0000764
 3,-0.00004969,0.00005266,-0.00002897,-0.00004526,0.00003061,0.00001257
 ,-0.00011084,-0.00026435,0.00002099,-0.00000030,-0.00000370,0.00000313
 ,-0.00000601,0.00000015,-0.00035939,-0.00012907,0.00063207,0.00000093,
 0.00002154,0.00001119,-0.00007903,-0.00005570,0.00002116,0.00084883,-0
 .00142534,-0.00222591,-0.00004109,-0.00003361,-0.00007803,0.00049895,0
 .00002005,0.00001102,0.00008634,0.00006928,0.00009605,-0.00725312,-0.0
 0114934,0.00218118,-0.28612257,-0.07855113,0.05429944,0.00004965,0.000
 20972,-0.00033013,0.00051450,-0.00022798,-0.00009234,0.30786974,0.0000
 0423,-0.00000650,0.00000861,-0.00000015,0.00000240,0.00000304,-0.00001
 420,0.00000363,0.00001129,0.00000741,0.00000355,-0.00001065,-0.0000067
 0,0.00000666,-0.00000505,-0.00000877,0.00000161,0.00000871,0.00000191,
 -0.00000104,-0.00000017,-0.00000050,-0.00000073,0.00000158,-0.00000265
 ,0.00000109,-0.00000062,-0.00000218,0.00000144,-0.00000098,-0.00001579
 ,0.00000873,0.00000192,-0.00002317,0.00000264,0.00000888,-0.00001957,-
 0.00003447,-0.00002038,0.00021316,0.00013058,-0.00007503,-0.00008550,-
 0.00005187,-0.00000115,-0.00006619,-0.00004028,0.00006154,0.00000847,-
 0.00006523,0.00001040,-0.00000890,-0.00022038,-0.00038391,0.00002174,-
 0.00000139,0.00000188,0.00000033,-0.00000796,-0.00000187,-0.00117135,-
 0.00001191,0.00064546,-0.00000012,0.00002055,0.00002282,-0.00010616,-0
 .00008990,0.00003789,-0.00025175,-0.00300447,-0.00424525,-0.00003576,-
 0.00000971,-0.00008994,-0.00020218,0.00031960,-0.00001621,0.00040047,0
 .00011854,-0.00013993,-0.02181650,-0.00722577,0.00677822,-0.07827039,-
 0.07519178,0.01854669,0.00052023,0.00087208,0.00013174,0.00034335,0.00
 029160,0.00079900,0.08719151,0.07890181,0.00000243,-0.00000316,0.00000
 501,-0.00000133,0.00000108,0.00000191,-0.00001019,0.00000515,0.0000054
 3,0.00000486,0.00000166,-0.00000450,-0.00000388,0.00000412,-0.00000284
 ,-0.00000438,0.00000135,0.00000452,0.00000047,-0.00000102,-0.00000035,
 -0.00000082,-0.00000065,0.00000052,-0.00000124,0.00000014,-0.00000052,
 -0.00000136,0.00000036,-0.00000038,-0.00001004,0.00000354,0.00000150,-
 0.00001037,0.00000142,0.00000591,-0.00000921,-0.00002180,-0.00000945,0
 .00010751,0.00006552,-0.00007606,-0.00004930,-0.00001994,0.00001122,-0
 .00002650,-0.00001647,0.00005386,0.00002554,-0.00005128,0.00000121,-0.
 00004522,-0.00025108,-0.00038999,0.00000988,0.00000632,-0.00000254,-0.
 00000142,-0.00000307,0.00000203,-0.00105783,-0.00057472,0.00096139,0.0
 0000652,0.00000624,0.00000549,-0.00010377,-0.00009251,0.00003242,-0.00
 060441,-0.00304645,-0.00347521,0.00000749,0.00007911,-0.00002274,0.000
 28528,0.00008905,-0.00018645,-0.00012872,-0.00034586,0.00026127,-0.023
 03181,-0.00617864,0.00546986,0.05484262,0.01875499,-0.06145758,0.00002
 621,0.00090993,0.00065520,0.00062095,0.00057327,0.00074983,-0.05863284
 ,-0.01770337,0.06368830,-0.00000189,0.00000272,-0.00000509,-0.00000137
 ,0.00000019,-0.00000082,0.00000333,0.00000081,-0.00000558,-0.00000271,
 -0.00000234,0.00000554,0.00000314,-0.00000345,0.00000156,0.00000347,-0
 .00000130,-0.00000409,-0.00000072,0.00000132,0.00000046,0.00000034,0.0
 0000080,-0.00000062,0.00000167,-0.00000018,0.00000036,0.00000183,-0.00
 000037,0.00000086,0.00000564,-0.00000371,0.00000060,0.00001238,-0.0000
 0325,-0.00000204,0.00000753,0.00000711,0.00000959,-0.00011385,-0.00003
 198,0.00002103,0.00004011,0.00001808,0.00000235,0.00003635,0.00001051,
 -0.00001321,0.00000675,0.00000305,-0.00001255,0.00001797,0.00004842,0.
 00006068,-0.00001647,0.00000313,0.00000515,0.00000032,0.00000328,0.000
 00110,-0.00003593,-0.00002126,-0.00012418,-0.00000196,-0.00001340,-0.0
 0000012,0.00002125,0.00001939,-0.00000213,0.00155326,-0.00077926,0.000
 09637,0.00002052,0.00002501,0.00004528,0.00003660,0.00045596,-0.000146
 55,-0.00006376,0.00002978,0.00009219,0.00627883,-0.00923272,0.00108302
 ,-0.15072055,0.13050938,-0.00417318,0.00024933,0.00053475,0.00057064,0
 .00011188,-0.00217243,-0.00139745,-0.01754477,0.02515172,-0.00194692,0
 .15996558,0.00000197,0.00000138,0.00000170,-0.00000425,-0.00000036,-0.
 00000091,-0.00000341,0.00000251,0.00000141,0.00000181,0.00000164,0.000
 00055,-0.00000169,0.00000261,0.,-0.00000100,0.00000305,0.00000097,-0.0
 0000175,-0.00000232,-0.00000226,-0.00000127,-0.00000148,-0.00000042,-0
 .00000059,-0.00000105,-0.00000075,-0.00000113,-0.00000117,-0.00000050,
 -0.00000266,-0.00000243,0.00000099,-0.00000097,0.00001155,0.00000020,0
 .00000012,-0.00000690,0.00000090,0.00001153,-0.00005406,-0.00000867,-0
 .00000772,0.00003381,0.00001869,-0.00001293,0.00002497,-0.00000124,0.0
 0001682,-0.00001754,-0.00002661,0.00002753,-0.00000271,0.00007032,-0.0
 0001199,-0.00000793,0.00001251,-0.00000777,-0.00000212,-0.00000409,-0.
 00030074,0.00043697,-0.00009370,0.00000620,-0.00000607,-0.00000440,0.0
 0001822,0.00001522,0.00000105,0.00134506,0.00062462,0.00063071,0.00009
 012,0.00000275,0.00007935,-0.00123089,0.00007610,-0.00001657,-0.000047
 99,-0.00006431,-0.00002782,0.01440482,-0.01934005,0.00070672,0.1303920
 7,-0.21730282,0.00689720,-0.00016890,0.00103275,0.00007130,-0.00219397
 ,-0.00199742,-0.00368418,-0.00678276,0.00991469,-0.00059217,-0.1426080
 8,0.23618624,-0.00000046,-0.00000101,0.00000398,0.00000171,-0.00000035
 ,0.00000071,0.00000076,-0.00000222,0.00000192,-0.00000006,0.00000071,-
 0.00000283,-0.00000122,0.00000020,0.00000003,-0.00000054,0.00000016,0.
 00000037,-0.00000037,-0.00000056,-0.00000057,0.00000070,0.00000070,0.0
 0000022,-0.00000001,0.00000040,0.00000003,-0.00000092,0.00000052,-0.00
 000007,-0.00000028,0.00000328,-0.00000452,-0.00000390,0.00000548,-0.00
 000607,-0.00000774,-0.00000942,0.00000670,0.00002507,0.00002769,0.0000
 0199,-0.00001155,-0.00001196,-0.00000729,-0.00000831,-0.00000919,0.000
 00108,-0.00000977,-0.00000737,0.00001769,0.00001143,0.00004314,0.00003
 335,0.00000635,0.00000190,0.00000505,-0.00000217,-0.00000725,-0.000002
 57,0.00003540,0.00023630,-0.00017214,-0.00000418,-0.00000474,-0.000001
 10,0.00001521,0.00000591,-0.00000072,0.00090343,0.00071234,0.00043516,
 0.00002932,-0.00003474,0.00001826,-0.00047849,0.00027987,0.00028748,-0
 .00016980,0.00008145,-0.00000377,0.01514581,-0.01962829,0.00036323,-0.
 00429161,0.00703227,-0.04953114,0.00073288,0.00065208,0.00068683,-0.00
 196619,-0.00360716,-0.00263390,0.00446475,-0.00641751,-0.00087625,0.00
 593264,-0.00383490,0.05075638,-0.00000043,0.00000261,-0.00000426,-0.00
 000243,-0.00000044,-0.00000081,-0.00000029,0.00000398,-0.00000414,-0.0
 0000073,-0.00000145,0.00000538,0.00000196,-0.00000120,0.00000087,0.000
 00255,-0.00000003,-0.00000220,-0.00000078,0.,-0.00000002,-0.00000073,-
 0.00000040,-0.00000078,0.00000086,-0.00000087,-0.00000002,0.00000097,-
 0.00000102,0.00000041,0.00000148,-0.00000498,0.00000310,0.00001003,-0.
 00000294,0.00000298,0.00000850,0.00000699,0.00000320,-0.00008524,-0.00
 004908,-0.00001818,0.00002853,0.00003041,0.00001749,0.00003077,0.00002
 201,0.00000795,0.00000760,-0.00000983,-0.00001476,-0.00001566,0.000031
 48,0.00006571,-0.00002242,0.00000700,-0.00000632,0.00000299,0.00000782
 ,0.00000427,-0.00005793,-0.00014260,-0.00003753,-0.00000659,-0.0000349
 4,0.00000796,0.00002389,0.00001389,0.00000451,0.00074383,0.00104170,-0
 .00097182,-0.00000719,0.00003703,0.00015828,-0.00004150,0.00008881,-0.
 00001891,-0.00005552,-0.00046309,0.00023763,-0.00095883,0.00409640,-0.
 00928365,-0.05021398,0.00008604,0.00146609,0.00006896,-0.00164731,-0.0
 0138443,0.00012146,-0.00001375,0.00071273,0.00153150,-0.01175605,0.029
 74183,0.00012592,0.00707618,-0.02034786,0.04875844,-0.00000127,0.00000
 135,0.00000033,0.00000169,-0.00000131,-0.00000036,0.00000460,-0.000003
 20,-0.00000120,-0.00000230,-0.00000012,0.00000096,0.00000060,-0.000001
 38,0.00000152,0.00000192,-0.00000008,-0.00000182,-0.00000061,-0.000000
 39,-0.00000062,0.00000069,0.00000069,-0.00000020,0.00000059,-0.0000000
 9,0.00000023,-0.00000031,-0.00000005,0.00000004,0.00000377,0.00000026,
 -0.00000337,0.00000270,0.00000451,-0.00000748,-0.00000163,0.00000063,0
 .00001143,-0.00002983,-0.00000842,0.00001973,0.00001142,0.00000208,-0.
 00000452,0.00001046,0.00000072,-0.00001451,0.00000190,0.00000278,0.000
 00490,-0.00000123,0.00002108,0.00011858,-0.00000348,-0.00000077,0.0000
 0584,0.00000311,-0.00000254,-0.00000279,0.00015635,-0.00006114,-0.0002
 0210,-0.00003174,-0.00002390,0.00001142,0.00001860,0.00001430,-0.00000
 625,0.00111486,0.00116091,-0.00046604,-0.00001337,-0.00000216,0.000169
 19,-0.00010271,-0.00006141,0.00016958,-0.00007073,-0.00009355,0.000570
 86,-0.00028408,0.00991969,-0.02410909,0.00011171,-0.08751740,0.0951252
 0,-0.00209387,-0.00310023,-0.00382105,0.00058162,0.00108921,0.00062979
 ,0.00098459,-0.00463782,0.00839894,-0.00195165,-0.00956012,0.02449228,
 0.00157763,0.09285789,0.00000254,-0.00000179,-0.00000163,-0.00000155,0
 .00000107,0.00000189,-0.00001054,0.00000714,0.00000273,0.00000416,-0.0
 0000036,-0.00000109,-0.00000117,0.00000227,-0.00000297,-0.00000311,-0.
 00000021,0.00000392,0.00000152,0.00000005,0.00000093,-0.00000091,-0.00
 000056,0.00000043,-0.00000087,0.00000018,-0.00000016,0.00000051,0.0000
 0002,-0.00000018,-0.00000967,0.00000112,0.00000643,-0.00000222,-0.0000
 1093,0.00001634,-0.00000114,-0.00000787,-0.00001577,0.00004049,0.00005
 948,-0.00009462,-0.00001975,-0.00001644,0.00002130,-0.00000045,-0.0000
 1810,0.00006670,-0.00000647,-0.00003625,0.00000879,0.00000310,-0.00002
 462,0.00000499,-0.00000201,0.00000475,-0.00000833,0.00001045,0.0000019
 6,0.00000189,-0.00001467,-0.00025235,0.00033859,-0.00004038,-0.0000421
 7,0.00001222,-0.00001034,-0.00000965,0.00000144,0.00092646,0.00097266,
 0.00062296,0.00012764,0.00018477,0.00020148,-0.00006873,-0.00010591,-0
 .00005981,-0.00094854,-0.00057550,0.00041506,0.00009889,0.00828145,-0.
 02122399,0.00144321,0.09487839,-0.28081150,-0.00138128,-0.00403228,-0.
 00157286,0.00040840,-0.00000783,0.00070372,-0.00010396,0.00203233,-0.0
 0541203,-0.00009490,-0.00019540,0.00062249,-0.00034472,-0.10108945,0.3
 0615066\\0.00000307,-0.00000456,-0.00000182,-0.00000911,0.00000414,-0.
 00000403,0.00000233,0.00000172,0.00000211,0.00000092,0.00000233,-0.000
 00133,0.00000044,0.00000220,-0.00000576,-0.00000127,0.00000055,-0.0000
 0129,0.00000026,-0.00000251,-0.00000138,-0.00000066,0.00000464,-0.0000
 0217,0.00000055,0.00000198,-0.00000379,0.00000111,-0.00000133,-0.00000
 363,-0.00000264,0.00000089,0.00000299,0.00000497,-0.00000423,0.0000071
 2,0.00000095,0.00000539,-0.00001144,-0.00000841,0.00001221,0.00001788,
 0.00000031,-0.00000931,-0.00000871,0.00000597,0.00000303,0.00000248,0.
 00000104,-0.00000954,0.00000379,0.00000132,0.00000086,0.00000570,-0.00
 000177,0.00000275,-0.00000172,-0.00000065,-0.00000185,0.00000112,0.000
 00301,-0.00000254,0.00000441,-0.00000156,0.00000198,0.00000353,0.00000
 147,-0.00000371,0.00000392,0.00000541,-0.00000495,-0.00000229,-0.00000
 521,-0.00000010,0.00000025,-0.00000026,0.00000136,-0.00000165,-0.00000
 146,0.00000214,0.00000068,-0.00000089,0.00000120,0.00000569,-0.0000004
 8,-0.00000258,-0.00000516,0.00000019,-0.00000336,-0.00000134,0.0000008
 8,-0.00000162,0.,-0.00000026,-0.00000044,-0.00000113,0.00000066,0.0000
 0096,-0.00000267,-0.00000024,0.00000231,-0.00000038\\\@
 The archive entry for this job was punched.


 THERE ARE PEOPLE SO ADDICTED TO EXAGERATING THEY
 CAN'T TELL THE TRUTH WITHOUT LYING. -- FORTUNE COOKIE
 Job cpu time:       0 days  1 hours 50 minutes 30.4 seconds.
 Elapsed time:       0 days  0 hours  1 minutes 16.1 seconds.
 File lengths (MBytes):  RWF=    763 Int=      0 D2E=      0 Chk=     13 Scr=      1
 Normal termination of Gaussian 16 at Thu Nov 20 14:24:29 2025.
