 Entering Gaussian System, Link 0=g16
 Initial command:
 /public/software/g16/l1.exe "/tmp/Gau-41620.inp" -scrdir="/tmp/"
 Entering Link 1 = /public/software/g16/l1.exe PID=     41622.
  
 Copyright (c) 1988-2021, Gaussian, Inc.  All Rights Reserved.
  
 This is part of the Gaussian(R) 16 program.  It is based on
 the Gaussian(R) 09 system (copyright 2009, Gaussian, Inc.),
 the Gaussian(R) 03 system (copyright 2003, Gaussian, Inc.),
 the Gaussian(R) 98 system (copyright 1998, Gaussian, Inc.),
 the Gaussian(R) 94 system (copyright 1995, Gaussian, Inc.),
 the Gaussian 92(TM) system (copyright 1992, Gaussian, Inc.),
 the Gaussian 90(TM) system (copyright 1990, Gaussian, Inc.),
 the Gaussian 88(TM) system (copyright 1988, Gaussian, Inc.),
 the Gaussian 86(TM) system (copyright 1986, Carnegie Mellon
 University), and the Gaussian 82(TM) system (copyright 1983,
 Carnegie Mellon University). Gaussian is a federally registered
 trademark of Gaussian, Inc.
  
 This software contains proprietary and confidential information,
 including trade secrets, belonging to Gaussian, Inc.
  
 This software is provided under written license and may be
 used, copied, transmitted, or stored only in accord with that
 written license.
  
 The following legend is applicable only to US Government
 contracts under FAR:
  
                    RESTRICTED RIGHTS LEGEND
  
 Use, reproduction and disclosure by the US Government is
 subject to restrictions as set forth in subparagraphs (a)
 and (c) of the Commercial Computer Software - Restricted
 Rights clause in FAR 52.227-19.
  
 Gaussian, Inc.
 340 Quinnipiac St., Bldg. 40, Wallingford CT 06492
  
  
 ---------------------------------------------------------------
 Warning -- This program may not be used in any manner that
 competes with the business of Gaussian, Inc. or will provide
 assistance to any competitor of Gaussian, Inc.  The licensee
 of this program is prohibited from giving any competitor of
 Gaussian, Inc. access to this program.  By using this program,
 the user acknowledges that Gaussian, Inc. is engaged in the
 business of creating and licensing software in the field of
 computational chemistry and represents and warrants to the
 licensee that it is not a competitor of Gaussian, Inc. and that
 it will not use this program in any manner prohibited above.
 ---------------------------------------------------------------
  

 Cite this work as:
 Gaussian 16, Revision C.02,
 M. J. Frisch, G. W. Trucks, H. B. Schlegel, G. E. Scuseria, 
 M. A. Robb, J. R. Cheeseman, G. Scalmani, V. Barone, 
 G. A. Petersson, H. Nakatsuji, X. Li, M. Caricato, A. V. Marenich, 
 J. Bloino, B. G. Janesko, R. Gomperts, B. Mennucci, H. P. Hratchian, 
 J. V. Ortiz, A. F. Izmaylov, J. L. Sonnenberg, D. Williams-Young, 
 F. Ding, F. Lipparini, F. Egidi, J. Goings, B. Peng, A. Petrone, 
 T. Henderson, D. Ranasinghe, V. G. Zakrzewski, J. Gao, N. Rega, 
 G. Zheng, W. Liang, M. Hada, M. Ehara, K. Toyota, R. Fukuda, 
 J. Hasegawa, M. Ishida, T. Nakajima, Y. Honda, O. Kitao, H. Nakai, 
 T. Vreven, K. Throssell, J. A. Montgomery, Jr., J. E. Peralta, 
 F. Ogliaro, M. J. Bearpark, J. J. Heyd, E. N. Brothers, K. N. Kudin, 
 V. N. Staroverov, T. A. Keith, R. Kobayashi, J. Normand, 
 K. Raghavachari, A. P. Rendell, J. C. Burant, S. S. Iyengar, 
 J. Tomasi, M. Cossi, J. M. Millam, M. Klene, C. Adamo, R. Cammi, 
 J. W. Ochterski, R. L. Martin, K. Morokuma, O. Farkas, 
 J. B. Foresman, and D. J. Fox, Gaussian, Inc., Wallingford CT, 2019.
 
 ******************************************
 Gaussian 16:  ES64L-G16RevC.02  7-Dec-2021
                20-Nov-2025 
 ******************************************
 %nprocshared=96
 Will use up to   96 processors via shared memory.
 %mem=10GB
 %chk=IM2.chk
 -------------------------
 # opt freq 6-31g(d) m062x
 -------------------------
 1/18=20,19=15,26=3,38=1/1,3;
 2/9=110,12=2,17=6,18=5,40=1/2;
 3/5=1,6=6,7=1,11=2,25=1,30=1,71=1,74=-55/1,2,3;
 4//1;
 5/5=2,38=5/2;
 6/7=2,8=2,9=2,10=2,28=1/1;
 7//1,2,3,16;
 1/18=20,19=15,26=3/3(2);
 2/9=110/2;
 99//99;
 2/9=110/2;
 3/5=1,6=6,7=1,11=2,25=1,30=1,71=1,74=-55/1,2,3;
 4/5=5,16=3,69=1/1;
 5/5=2,38=5/2;
 7//1,2,3,16;
 1/18=20,19=15,26=3/3(-5);
 2/9=110/2;
 6/7=2,8=2,9=2,10=2,19=2,28=1/1;
 99/9=1/99;
 -------------------
 Title Card Required
 -------------------
 Symbolic Z-matrix:
 Charge =  0 Multiplicity = 2
 C                    -2.70611  -0.72511  -1.52212 
 C                    -1.57996  -0.4223   -0.70462 
 C                    -1.76903  -0.29671   0.71565 
 C                    -3.02166  -0.47548   1.29605 
 C                    -4.10012  -0.77435   0.4651 
 C                    -3.9403   -0.89775  -0.93409 
 H                    -2.55974  -0.81736  -2.59828 
 H                    -3.15782  -0.38244   2.37352 
 H                    -5.08767  -0.9163    0.90537 
 H                    -4.8076   -1.13436  -1.55106 
 S                    -0.27109   0.09941   1.49534 
 N                    -0.34871  -0.21716  -1.16404 
 C                     0.58291  -0.03044  -0.13905 
 S                     1.66763  -1.67034  -0.05107 
 O                     1.21294  -2.62645  -1.05337 
 O                     1.77619  -2.09031   1.34571 
 C                     3.21148  -0.85488  -0.49068 
 C                     3.02097   0.54738   0.06625 
 H                     3.28824  -0.87198  -1.58517 
 H                     4.01457  -1.44305  -0.03116 
 C                     1.65631   1.04313  -0.43254 
 H                     3.05263   0.52659   1.16733 
 H                     3.81812   1.21744  -0.2808 
 C                     1.30134   2.44516   0.05252 
 H                     1.69937   1.05998  -1.53412 
 H                     1.25713   2.45473   1.1547 
 H                     2.13404   3.11043  -0.23027 
 C                    -0.00039   2.99514  -0.52339 
 C                    -0.26696   4.42819  -0.07788 
 H                    -0.84127   2.35269  -0.21467 
 H                     0.04133   2.94201  -1.6239 
 H                    -1.20609   4.8121   -0.49922 
 H                    -0.33892   4.48927   1.01846 
 H                     0.54605   5.09753  -0.3967 
 

 GradGradGradGradGradGradGradGradGradGradGradGradGradGradGradGradGradGrad
 Berny optimization.
 Initialization pass.
                           ----------------------------
                           !    Initial Parameters    !
                           ! (Angstroms and Degrees)  !
 --------------------------                            --------------------------
 ! Name  Definition              Value          Derivative Info.                !
 --------------------------------------------------------------------------------
 ! R1    R(1,2)                  1.4241         estimate D2E/DX2                !
 ! R2    R(1,6)                  1.378          estimate D2E/DX2                !
 ! R3    R(1,7)                  1.09           estimate D2E/DX2                !
 ! R4    R(2,3)                  1.4383         estimate D2E/DX2                !
 ! R5    R(2,12)                 1.3301         estimate D2E/DX2                !
 ! R6    R(3,4)                  1.3921         estimate D2E/DX2                !
 ! R7    R(3,11)                 1.7345         estimate D2E/DX2                !
 ! R8    R(4,5)                  1.3939         estimate D2E/DX2                !
 ! R9    R(4,8)                  1.09           estimate D2E/DX2                !
 ! R10   R(5,6)                  1.4137         estimate D2E/DX2                !
 ! R11   R(5,9)                  1.0905         estimate D2E/DX2                !
 ! R12   R(6,10)                 1.0903         estimate D2E/DX2                !
 ! R13   R(11,13)                1.8486         estimate D2E/DX2                !
 ! R14   R(12,13)                1.3976         estimate D2E/DX2                !
 ! R15   R(13,14)                1.9682         estimate D2E/DX2                !
 ! R16   R(13,21)                1.5462         estimate D2E/DX2                !
 ! R17   R(14,15)                1.4579         estimate D2E/DX2                !
 ! R18   R(14,16)                1.4626         estimate D2E/DX2                !
 ! R19   R(14,17)                1.8005         estimate D2E/DX2                !
 ! R20   R(17,18)                1.5208         estimate D2E/DX2                !
 ! R21   R(17,19)                1.0973         estimate D2E/DX2                !
 ! R22   R(17,20)                1.0964         estimate D2E/DX2                !
 ! R23   R(18,21)                1.5352         estimate D2E/DX2                !
 ! R24   R(18,22)                1.1017         estimate D2E/DX2                !
 ! R25   R(18,23)                1.0977         estimate D2E/DX2                !
 ! R26   R(21,24)                1.5254         estimate D2E/DX2                !
 ! R27   R(21,25)                1.1026         estimate D2E/DX2                !
 ! R28   R(24,26)                1.1031         estimate D2E/DX2                !
 ! R29   R(24,27)                1.1027         estimate D2E/DX2                !
 ! R30   R(24,28)                1.526          estimate D2E/DX2                !
 ! R31   R(28,29)                1.5242         estimate D2E/DX2                !
 ! R32   R(28,30)                1.1023         estimate D2E/DX2                !
 ! R33   R(28,31)                1.1026         estimate D2E/DX2                !
 ! R34   R(29,32)                1.0986         estimate D2E/DX2                !
 ! R35   R(29,33)                1.1004         estimate D2E/DX2                !
 ! R36   R(29,34)                1.1003         estimate D2E/DX2                !
 ! A1    A(2,1,6)              119.3357         estimate D2E/DX2                !
 ! A2    A(2,1,7)              118.5908         estimate D2E/DX2                !
 ! A3    A(6,1,7)              122.0729         estimate D2E/DX2                !
 ! A4    A(1,2,3)              118.7801         estimate D2E/DX2                !
 ! A5    A(1,2,12)             124.5078         estimate D2E/DX2                !
 ! A6    A(3,2,12)             116.6984         estimate D2E/DX2                !
 ! A7    A(2,3,4)              121.2503         estimate D2E/DX2                !
 ! A8    A(2,3,11)             110.5051         estimate D2E/DX2                !
 ! A9    A(4,3,11)             128.2426         estimate D2E/DX2                !
 ! A10   A(3,4,5)              118.3713         estimate D2E/DX2                !
 ! A11   A(3,4,8)              120.9021         estimate D2E/DX2                !
 ! A12   A(5,4,8)              120.7265         estimate D2E/DX2                !
 ! A13   A(4,5,6)              121.4186         estimate D2E/DX2                !
 ! A14   A(4,5,9)              119.2017         estimate D2E/DX2                !
 ! A15   A(6,5,9)              119.3796         estimate D2E/DX2                !
 ! A16   A(1,6,5)              120.8423         estimate D2E/DX2                !
 ! A17   A(1,6,10)             119.8782         estimate D2E/DX2                !
 ! A18   A(5,6,10)             119.2794         estimate D2E/DX2                !
 ! A19   A(3,11,13)             89.169          estimate D2E/DX2                !
 ! A20   A(2,12,13)            112.6024         estimate D2E/DX2                !
 ! A21   A(11,13,12)           110.4774         estimate D2E/DX2                !
 ! A22   A(11,13,14)           105.8788         estimate D2E/DX2                !
 ! A23   A(11,13,21)           116.0873         estimate D2E/DX2                !
 ! A24   A(12,13,14)           106.7882         estimate D2E/DX2                !
 ! A25   A(12,13,21)           114.6007         estimate D2E/DX2                !
 ! A26   A(14,13,21)           101.7941         estimate D2E/DX2                !
 ! A27   A(13,14,15)           110.1089         estimate D2E/DX2                !
 ! A28   A(13,14,16)           108.8355         estimate D2E/DX2                !
 ! A29   A(13,14,17)            94.8352         estimate D2E/DX2                !
 ! A30   A(15,14,16)           119.4327         estimate D2E/DX2                !
 ! A31   A(15,14,17)           113.3653         estimate D2E/DX2                !
 ! A32   A(16,14,17)           107.4327         estimate D2E/DX2                !
 ! A33   A(14,17,18)           102.7549         estimate D2E/DX2                !
 ! A34   A(14,17,19)           107.2449         estimate D2E/DX2                !
 ! A35   A(14,17,20)           106.426          estimate D2E/DX2                !
 ! A36   A(18,17,19)           112.8547         estimate D2E/DX2                !
 ! A37   A(18,17,20)           115.6536         estimate D2E/DX2                !
 ! A38   A(19,17,20)           111.0054         estimate D2E/DX2                !
 ! A39   A(17,18,21)           106.8657         estimate D2E/DX2                !
 ! A40   A(17,18,22)           110.1818         estimate D2E/DX2                !
 ! A41   A(17,18,23)           110.8611         estimate D2E/DX2                !
 ! A42   A(21,18,22)           110.8756         estimate D2E/DX2                !
 ! A43   A(21,18,23)           110.2246         estimate D2E/DX2                !
 ! A44   A(22,18,23)           107.8563         estimate D2E/DX2                !
 ! A45   A(13,21,18)           109.3421         estimate D2E/DX2                !
 ! A46   A(13,21,24)           114.5977         estimate D2E/DX2                !
 ! A47   A(13,21,25)           103.142          estimate D2E/DX2                !
 ! A48   A(18,21,24)           113.5989         estimate D2E/DX2                !
 ! A49   A(18,21,25)           107.147          estimate D2E/DX2                !
 ! A50   A(24,21,25)           108.2247         estimate D2E/DX2                !
 ! A51   A(21,24,26)           109.5737         estimate D2E/DX2                !
 ! A52   A(21,24,27)           107.2919         estimate D2E/DX2                !
 ! A53   A(21,24,28)           114.1887         estimate D2E/DX2                !
 ! A54   A(26,24,27)           106.3356         estimate D2E/DX2                !
 ! A55   A(26,24,28)           109.8628         estimate D2E/DX2                !
 ! A56   A(27,24,28)           109.2651         estimate D2E/DX2                !
 ! A57   A(24,28,29)           112.1935         estimate D2E/DX2                !
 ! A58   A(24,28,30)           109.5703         estimate D2E/DX2                !
 ! A59   A(24,28,31)           109.0899         estimate D2E/DX2                !
 ! A60   A(29,28,30)           109.432          estimate D2E/DX2                !
 ! A61   A(29,28,31)           110.1007         estimate D2E/DX2                !
 ! A62   A(30,28,31)           106.2788         estimate D2E/DX2                !
 ! A63   A(28,29,32)           111.4674         estimate D2E/DX2                !
 ! A64   A(28,29,33)           110.7835         estimate D2E/DX2                !
 ! A65   A(28,29,34)           110.9789         estimate D2E/DX2                !
 ! A66   A(32,29,33)           107.8678         estimate D2E/DX2                !
 ! A67   A(32,29,34)           107.9349         estimate D2E/DX2                !
 ! A68   A(33,29,34)           107.6526         estimate D2E/DX2                !
 ! D1    D(6,1,2,3)             -0.4132         estimate D2E/DX2                !
 ! D2    D(6,1,2,12)          -179.0165         estimate D2E/DX2                !
 ! D3    D(7,1,2,3)            179.864          estimate D2E/DX2                !
 ! D4    D(7,1,2,12)             1.2606         estimate D2E/DX2                !
 ! D5    D(2,1,6,5)              0.175          estimate D2E/DX2                !
 ! D6    D(2,1,6,10)          -179.718          estimate D2E/DX2                !
 ! D7    D(7,1,6,5)            179.8878         estimate D2E/DX2                !
 ! D8    D(7,1,6,10)            -0.0052         estimate D2E/DX2                !
 ! D9    D(1,2,3,4)              0.5028         estimate D2E/DX2                !
 ! D10   D(1,2,3,11)          -179.0286         estimate D2E/DX2                !
 ! D11   D(12,2,3,4)           179.2146         estimate D2E/DX2                !
 ! D12   D(12,2,3,11)           -0.3168         estimate D2E/DX2                !
 ! D13   D(1,2,12,13)         -175.8246         estimate D2E/DX2                !
 ! D14   D(3,2,12,13)            5.5455         estimate D2E/DX2                !
 ! D15   D(2,3,4,5)             -0.3362         estimate D2E/DX2                !
 ! D16   D(2,3,4,8)            179.7817         estimate D2E/DX2                !
 ! D17   D(11,3,4,5)           179.105          estimate D2E/DX2                !
 ! D18   D(11,3,4,8)            -0.7772         estimate D2E/DX2                !
 ! D19   D(2,3,11,13)           -3.4823         estimate D2E/DX2                !
 ! D20   D(4,3,11,13)          177.0278         estimate D2E/DX2                !
 ! D21   D(3,4,5,6)              0.0858         estimate D2E/DX2                !
 ! D22   D(3,4,5,9)           -179.9486         estimate D2E/DX2                !
 ! D23   D(8,4,5,6)            179.9681         estimate D2E/DX2                !
 ! D24   D(8,4,5,9)             -0.0663         estimate D2E/DX2                !
 ! D25   D(4,5,6,1)             -0.0064         estimate D2E/DX2                !
 ! D26   D(4,5,6,10)           179.8873         estimate D2E/DX2                !
 ! D27   D(9,5,6,1)           -179.9719         estimate D2E/DX2                !
 ! D28   D(9,5,6,10)            -0.0782         estimate D2E/DX2                !
 ! D29   D(3,11,13,12)           6.4756         estimate D2E/DX2                !
 ! D30   D(3,11,13,14)        -108.7875         estimate D2E/DX2                !
 ! D31   D(3,11,13,21)         139.1335         estimate D2E/DX2                !
 ! D32   D(2,12,13,11)          -7.9067         estimate D2E/DX2                !
 ! D33   D(2,12,13,14)         106.7843         estimate D2E/DX2                !
 ! D34   D(2,12,13,21)        -141.3187         estimate D2E/DX2                !
 ! D35   D(11,13,14,15)        117.4058         estimate D2E/DX2                !
 ! D36   D(11,13,14,16)        -15.2663         estimate D2E/DX2                !
 ! D37   D(11,13,14,17)       -125.541          estimate D2E/DX2                !
 ! D38   D(12,13,14,15)         -0.3516         estimate D2E/DX2                !
 ! D39   D(12,13,14,16)       -133.0236         estimate D2E/DX2                !
 ! D40   D(12,13,14,17)        116.7016         estimate D2E/DX2                !
 ! D41   D(21,13,14,15)       -120.8289         estimate D2E/DX2                !
 ! D42   D(21,13,14,16)        106.499          estimate D2E/DX2                !
 ! D43   D(21,13,14,17)         -3.7757         estimate D2E/DX2                !
 ! D44   D(11,13,21,18)         90.0295         estimate D2E/DX2                !
 ! D45   D(11,13,21,24)        -38.8228         estimate D2E/DX2                !
 ! D46   D(11,13,21,25)       -156.2159         estimate D2E/DX2                !
 ! D47   D(12,13,21,18)       -139.2341         estimate D2E/DX2                !
 ! D48   D(12,13,21,24)         91.9136         estimate D2E/DX2                !
 ! D49   D(12,13,21,25)        -25.4795         estimate D2E/DX2                !
 ! D50   D(14,13,21,18)        -24.3918         estimate D2E/DX2                !
 ! D51   D(14,13,21,24)       -153.2442         estimate D2E/DX2                !
 ! D52   D(14,13,21,25)         89.3627         estimate D2E/DX2                !
 ! D53   D(13,14,17,18)         30.2455         estimate D2E/DX2                !
 ! D54   D(13,14,17,19)        -88.9133         estimate D2E/DX2                !
 ! D55   D(13,14,17,20)        152.2175         estimate D2E/DX2                !
 ! D56   D(15,14,17,18)        144.6013         estimate D2E/DX2                !
 ! D57   D(15,14,17,19)         25.4425         estimate D2E/DX2                !
 ! D58   D(15,14,17,20)        -93.4267         estimate D2E/DX2                !
 ! D59   D(16,14,17,18)        -81.2338         estimate D2E/DX2                !
 ! D60   D(16,14,17,19)        159.6073         estimate D2E/DX2                !
 ! D61   D(16,14,17,20)         40.7382         estimate D2E/DX2                !
 ! D62   D(14,17,18,21)        -49.9418         estimate D2E/DX2                !
 ! D63   D(14,17,18,22)         70.5988         estimate D2E/DX2                !
 ! D64   D(14,17,18,23)       -170.0817         estimate D2E/DX2                !
 ! D65   D(19,17,18,21)         65.2255         estimate D2E/DX2                !
 ! D66   D(19,17,18,22)       -174.2339         estimate D2E/DX2                !
 ! D67   D(19,17,18,23)        -54.9144         estimate D2E/DX2                !
 ! D68   D(20,17,18,21)       -165.4318         estimate D2E/DX2                !
 ! D69   D(20,17,18,22)        -44.8912         estimate D2E/DX2                !
 ! D70   D(20,17,18,23)         74.4283         estimate D2E/DX2                !
 ! D71   D(17,18,21,13)         50.0502         estimate D2E/DX2                !
 ! D72   D(17,18,21,24)        179.4517         estimate D2E/DX2                !
 ! D73   D(17,18,21,25)        -61.0793         estimate D2E/DX2                !
 ! D74   D(22,18,21,13)        -70.0461         estimate D2E/DX2                !
 ! D75   D(22,18,21,24)         59.3555         estimate D2E/DX2                !
 ! D76   D(22,18,21,25)        178.8244         estimate D2E/DX2                !
 ! D77   D(23,18,21,13)        170.5976         estimate D2E/DX2                !
 ! D78   D(23,18,21,24)        -60.0009         estimate D2E/DX2                !
 ! D79   D(23,18,21,25)         59.4681         estimate D2E/DX2                !
 ! D80   D(13,21,24,26)         65.8216         estimate D2E/DX2                !
 ! D81   D(13,21,24,27)       -179.1331         estimate D2E/DX2                !
 ! D82   D(13,21,24,28)        -57.8912         estimate D2E/DX2                !
 ! D83   D(18,21,24,26)        -60.8694         estimate D2E/DX2                !
 ! D84   D(18,21,24,27)         54.176          estimate D2E/DX2                !
 ! D85   D(18,21,24,28)        175.4179         estimate D2E/DX2                !
 ! D86   D(25,21,24,26)       -179.7224         estimate D2E/DX2                !
 ! D87   D(25,21,24,27)        -64.677          estimate D2E/DX2                !
 ! D88   D(25,21,24,28)         56.5648         estimate D2E/DX2                !
 ! D89   D(21,24,28,29)       -176.4543         estimate D2E/DX2                !
 ! D90   D(21,24,28,30)         61.7853         estimate D2E/DX2                !
 ! D91   D(21,24,28,31)        -54.181          estimate D2E/DX2                !
 ! D92   D(26,24,28,29)         59.9886         estimate D2E/DX2                !
 ! D93   D(26,24,28,30)        -61.7717         estimate D2E/DX2                !
 ! D94   D(26,24,28,31)       -177.7381         estimate D2E/DX2                !
 ! D95   D(27,24,28,29)        -56.3105         estimate D2E/DX2                !
 ! D96   D(27,24,28,30)       -178.0708         estimate D2E/DX2                !
 ! D97   D(27,24,28,31)         65.9628         estimate D2E/DX2                !
 ! D98   D(24,28,29,32)        179.9841         estimate D2E/DX2                !
 ! D99   D(24,28,29,33)        -59.8905         estimate D2E/DX2                !
 ! D100  D(24,28,29,34)         59.6414         estimate D2E/DX2                !
 ! D101  D(30,28,29,32)        -58.1765         estimate D2E/DX2                !
 ! D102  D(30,28,29,33)         61.9489         estimate D2E/DX2                !
 ! D103  D(30,28,29,34)       -178.5192         estimate D2E/DX2                !
 ! D104  D(31,28,29,32)         58.287          estimate D2E/DX2                !
 ! D105  D(31,28,29,33)        178.4124         estimate D2E/DX2                !
 ! D106  D(31,28,29,34)        -62.0557         estimate D2E/DX2                !
 --------------------------------------------------------------------------------
 Trust Radius=3.00D-01 FncErr=1.00D-07 GrdErr=1.00D-06 EigMax=2.50D+02 EigMin=1.00D-04
 Number of steps in this run=    204 maximum allowed number of steps=    204.
 GradGradGradGradGradGradGradGradGradGradGradGradGradGradGradGradGradGrad

                          Input orientation:                          
 ---------------------------------------------------------------------
 Center     Atomic      Atomic             Coordinates (Angstroms)
 Number     Number       Type             X           Y           Z
 ---------------------------------------------------------------------
      1          6           0       -2.706110   -0.725108   -1.522116
      2          6           0       -1.579962   -0.422298   -0.704622
      3          6           0       -1.769030   -0.296714    0.715647
      4          6           0       -3.021661   -0.475481    1.296052
      5          6           0       -4.100116   -0.774348    0.465096
      6          6           0       -3.940301   -0.897746   -0.934087
      7          1           0       -2.559736   -0.817359   -2.598283
      8          1           0       -3.157822   -0.382439    2.373521
      9          1           0       -5.087672   -0.916297    0.905365
     10          1           0       -4.807596   -1.134362   -1.551056
     11         16           0       -0.271087    0.099406    1.495335
     12          7           0       -0.348707   -0.217162   -1.164038
     13          6           0        0.582909   -0.030435   -0.139051
     14         16           0        1.667632   -1.670341   -0.051066
     15          8           0        1.212935   -2.626449   -1.053370
     16          8           0        1.776189   -2.090309    1.345707
     17          6           0        3.211484   -0.854881   -0.490678
     18          6           0        3.020971    0.547375    0.066247
     19          1           0        3.288236   -0.871976   -1.585170
     20          1           0        4.014568   -1.443052   -0.031158
     21          6           0        1.656305    1.043127   -0.432537
     22          1           0        3.052631    0.526592    1.167334
     23          1           0        3.818123    1.217437   -0.280804
     24          6           0        1.301342    2.445156    0.052524
     25          1           0        1.699371    1.059976   -1.534120
     26          1           0        1.257132    2.454734    1.154702
     27          1           0        2.134043    3.110434   -0.230267
     28          6           0       -0.000390    2.995142   -0.523392
     29          6           0       -0.266963    4.428190   -0.077878
     30          1           0       -0.841270    2.352688   -0.214670
     31          1           0        0.041326    2.942009   -1.623902
     32          1           0       -1.206089    4.812104   -0.499216
     33          1           0       -0.338918    4.489265    1.018461
     34          1           0        0.546045    5.097526   -0.396698
 ---------------------------------------------------------------------
                    Distance matrix (angstroms):
                    1          2          3          4          5
     1  C    0.000000
     2  C    1.424149   0.000000
     3  C    2.463579   1.438291   0.000000
     4  C    2.846745   2.466581   1.392089   0.000000
     5  C    2.427898   2.800599   2.392670   1.393870   0.000000
     6  C    1.377973   2.418658   2.792361   2.448617   1.413676
     7  H    1.089987   2.168405   3.446508   3.936509   3.429127
     8  H    3.936681   3.459219   2.164403   1.090017   2.164162
     9  H    3.406032   3.891031   3.381311   2.148338   1.090529
    10  H    2.141161   3.411907   3.882329   3.424867   2.166796
    11  S    3.964110   2.612497   1.734548   2.817067   4.060333
    12  N    2.437945   1.330087   2.357300   3.641903   4.127663
    13  C    3.634981   2.269678   2.516551   3.905190   4.780076
    14  S    4.710316   3.540002   3.779596   5.023135   5.859705
    15  O    4.381065   3.574938   4.177224   5.298891   5.827909
    16  O    5.493559   4.271985   4.022752   5.062559   6.085901
    17  C    6.008213   4.815688   5.154832   6.495263   7.374245
    18  C    6.077957   4.764776   4.906966   6.250764   7.253683
    19  H    5.996476   4.967588   5.585752   6.947910   7.668172
    20  H    6.921410   5.726627   5.943216   7.225386   8.157299
    21  C    4.831615   3.562994   3.853105   5.213210   6.102896
    22  H    6.477885   5.085816   4.912257   6.157738   7.303929
    23  H    6.919534   5.657533   5.873827   7.220463   8.198907
    24  C    5.346937   4.134909   4.169504   5.363286   6.301680
    25  H    4.753413   3.693133   4.351076   5.714512   6.402785
    26  H    5.743173   4.447865   4.113501   5.187891   6.293062
    27  H    6.309306   5.147722   5.266630   6.462950   7.378333
    28  C    4.707295   3.769189   3.936956   4.948099   5.656317
    29  C    5.881474   5.063991   5.021016   5.789822   6.484927
    30  H    3.828821   2.913120   2.957289   3.877490   4.567331
    31  H    4.583286   3.846064   4.386366   5.439417   5.943632
    32  H    5.827272   5.251756   5.281365   5.871784   6.365040
    33  H    6.264808   5.350949   5.004249   5.650033   6.492953
    34  H    6.763590   5.923106   5.974505   6.830252   7.537135
                    6          7          8          9         10
     6  C    0.000000
     7  H    2.163786   0.000000
     8  H    3.437744   5.026500   0.000000
     9  H    2.168038   4.321550   2.482903   0.000000
    10  H    1.090339   2.500010   4.323129   2.481935   0.000000
    11  S    4.512154   4.778711   3.055589   4.957742   5.602017
    12  N    3.662734   2.702951   4.520262   5.218142   4.568668
    13  C    4.673729   4.067344   4.519955   5.833613   5.680665
    14  S    5.729358   5.008646   5.551785   6.864217   6.668270
    15  O    5.436771   4.460113   5.990215   6.816077   6.222605
    16  O    6.268806   5.997975   5.321436   6.977449   7.256121
    17  C    7.165646   6.144134   6.999635   8.415979   8.093711
    18  C    7.179718   6.332970   6.660747   8.282303   8.168866
    19  H    7.257845   5.935331   7.580405   8.738453   8.100155
    20  H    8.024499   7.085414   7.638754   9.165442   8.957453
    21  C    5.944791   5.091843   5.751697   7.149164   6.911914
    22  H    7.439476   6.890917   6.391475   8.271341   8.481249
    23  H    8.068080   7.084362   7.633404   9.234338   9.030367
    24  C    6.294697   5.707776   5.767709   7.269539   7.259720
    25  H    5.999885   4.774602   6.398636   7.478014   6.867025
    26  H    6.528053   6.273752   5.387661   7.189058   7.548752
    27  H    7.311534   6.562516   6.854466   8.346100   8.243126
    28  C    5.553931   5.038907   5.456147   6.574279   6.420134
    29  C    6.526262   6.255001   6.124424   7.264265   7.330047
    30  H    4.548283   4.322492   4.421093   5.474730   5.447677
    31  H    5.574309   4.674162   6.104580   6.898575   6.335152
    32  H    6.345661   6.158676   6.248612   7.060744   7.031193
    33  H    6.767739   6.795081   5.789292   7.196079   7.628675
    34  H    7.507288   7.034111   7.170966   8.342674   8.296411
                   11         12         13         14         15
    11  S    0.000000
    12  N    2.679273   0.000000
    13  C    1.848617   1.397631   0.000000
    14  S    3.046636   2.723244   1.968161   0.000000
    15  O    4.016031   2.873262   2.823509   1.457911   0.000000
    16  O    3.001430   3.784532   2.805620   1.462577   2.521958
    17  C    4.121069   3.679002   2.777185   1.800476   2.729336
    18  C    3.616713   3.667812   2.513992   2.600683   3.820431
    19  H    4.806441   3.719340   3.180919   2.370067   2.769090
    20  H    4.803769   4.671658   3.712602   2.358000   3.208503
    21  C    2.884812   2.478608   1.546237   2.740175   3.748039
    22  H    3.367072   4.190175   2.848938   2.868664   4.272900
    23  H    4.596336   4.494513   3.470431   3.607860   4.707369
    24  C    3.171243   3.360152   2.584840   4.133064   5.191531
    25  H    3.739385   2.441857   2.093251   3.107264   3.749329
    26  H    2.828260   3.885139   2.881742   4.317248   5.540393
    27  H    4.222398   4.255452   3.504197   4.806814   5.868370
    28  C    3.540314   3.294032   3.105169   4.977160   5.775406
    29  C    4.605799   4.771344   4.539313   6.398082   7.273900
    30  H    2.885568   2.783531   2.777279   4.744061   5.451145
    31  H    4.231741   3.216203   3.366529   5.137359   5.718907
    32  H    5.202114   5.144960   5.174980   7.105013   7.841609
    33  H    4.416206   5.187856   4.755764   6.565887   7.571930
    34  H    5.406357   5.443831   5.134562   6.868875   7.780472
                   16         17         18         19         20
    16  O    0.000000
    17  C    2.637928   0.000000
    18  C    3.184945   1.520784   0.000000
    19  H    3.515773   1.097313   2.193893   0.000000
    20  H    2.706481   1.096379   2.226774   1.807938   0.000000
    21  C    3.604850   2.454465   1.535210   2.767559   3.450159
    22  H    2.917069   2.163956   1.101738   3.096414   2.498240
    23  H    4.213813   2.169461   1.097670   2.519484   2.679387
    24  C    4.740068   3.851487   2.561032   4.199185   4.742021
    25  H    4.268911   2.653664   2.137887   2.501907   3.726148
    26  H    4.578572   4.180947   2.816715   4.764376   4.919599
    27  H    5.446052   4.117331   2.728339   4.362054   4.930543
    28  C    5.701892   5.013969   3.932920   5.186235   6.004977
    29  C    6.977958   6.338836   5.088419   6.557677   7.266717
    30  H    5.387587   5.175857   4.272584   5.415676   6.166075
    31  H    6.095289   5.074492   4.179612   5.009032   6.127989
    32  H    7.742159   7.185384   6.031227   7.327143   8.160963
    33  H    6.918928   6.591112   5.266314   6.976965   7.432828
    34  H    7.497613   6.522618   5.200332   6.675854   7.412384
                   21         22         23         24         25
    21  C    0.000000
    22  H    2.185434   0.000000
    23  H    2.174135   1.777737   0.000000
    24  C    1.525440   2.826783   2.820033   0.000000
    25  H    1.102553   3.068170   2.466719   2.143499   0.000000
    26  H    2.161319   2.634712   3.185947   1.103106   3.061158
    27  H    2.131409   3.077878   2.534190   1.102704   2.468471
    28  C    2.561885   4.274720   4.219019   1.525998   2.766880
    29  C    3.909398   5.271881   5.199812   2.531602   4.163169
    30  H    2.828480   4.517414   4.796156   2.161187   3.141164
    31  H    2.762836   4.763738   4.363743   2.155205   2.509825
    32  H    4.733174   6.267352   6.181589   3.492001   4.857076
    33  H    4.238181   5.218002   5.447379   2.793183   4.736065
    34  H    4.203821   5.442665   5.076910   2.794162   4.350368
                   26         27         28         29         30
    26  H    0.000000
    27  H    1.765518   0.000000
    28  C    2.165503   2.157549   0.000000
    29  C    2.781483   2.743088   1.524195   0.000000
    30  H    2.507765   3.070327   1.102332   2.157834   0.000000
    31  H    3.071850   2.519931   1.102581   2.166556   1.764146
    32  H    3.789472   3.758257   2.180744   1.098578   2.502556
    33  H    2.589450   3.094517   2.173549   1.100394   2.517525
    34  H    3.145924   2.549112   2.175928   1.100290   3.080895
                   31         32         33         34
    31  H    0.000000
    32  H    2.513607   0.000000
    33  H    3.085558   1.777513   0.000000
    34  H    2.531210   1.778187   1.776462   0.000000
 Stoichiometry    C13H16NO2S2(2)
 Framework group  C1[X(C13H16NO2S2)]
 Deg. of freedom    96
 Full point group                 C1      NOp   1
 Largest Abelian subgroup         C1      NOp   1
 Largest concise Abelian subgroup C1      NOp   1
                         Standard orientation:                         
 ---------------------------------------------------------------------
 Center     Atomic      Atomic             Coordinates (Angstroms)
 Number     Number       Type             X           Y           Z
 ---------------------------------------------------------------------
      1          6           0       -2.706110   -0.725108   -1.522116
      2          6           0       -1.579962   -0.422298   -0.704622
      3          6           0       -1.769030   -0.296714    0.715647
      4          6           0       -3.021661   -0.475481    1.296052
      5          6           0       -4.100116   -0.774348    0.465096
      6          6           0       -3.940301   -0.897746   -0.934087
      7          1           0       -2.559736   -0.817359   -2.598283
      8          1           0       -3.157822   -0.382439    2.373521
      9          1           0       -5.087672   -0.916297    0.905365
     10          1           0       -4.807596   -1.134362   -1.551056
     11         16           0       -0.271087    0.099406    1.495335
     12          7           0       -0.348707   -0.217162   -1.164038
     13          6           0        0.582909   -0.030435   -0.139051
     14         16           0        1.667632   -1.670341   -0.051066
     15          8           0        1.212935   -2.626449   -1.053370
     16          8           0        1.776189   -2.090309    1.345707
     17          6           0        3.211484   -0.854881   -0.490678
     18          6           0        3.020971    0.547375    0.066247
     19          1           0        3.288236   -0.871976   -1.585170
     20          1           0        4.014568   -1.443052   -0.031158
     21          6           0        1.656305    1.043127   -0.432537
     22          1           0        3.052631    0.526592    1.167334
     23          1           0        3.818123    1.217437   -0.280804
     24          6           0        1.301342    2.445156    0.052524
     25          1           0        1.699371    1.059976   -1.534120
     26          1           0        1.257132    2.454734    1.154702
     27          1           0        2.134043    3.110434   -0.230267
     28          6           0       -0.000390    2.995142   -0.523392
     29          6           0       -0.266963    4.428190   -0.077878
     30          1           0       -0.841270    2.352688   -0.214670
     31          1           0        0.041326    2.942009   -1.623902
     32          1           0       -1.206089    4.812104   -0.499216
     33          1           0       -0.338918    4.489265    1.018461
     34          1           0        0.546045    5.097526   -0.396698
 ---------------------------------------------------------------------
 Rotational constants (GHZ):           0.4625028           0.3396846           0.2421654
 Standard basis: 6-31G(d) (6D, 7F)
 There are   310 symmetry adapted cartesian basis functions of A   symmetry.
 There are   310 symmetry adapted basis functions of A   symmetry.
   310 basis functions,   616 primitive gaussians,   310 cartesian basis functions
    75 alpha electrons       74 beta electrons
       nuclear repulsion energy      1712.6843318293 Hartrees.
 NAtoms=   34 NActive=   34 NUniq=   34 SFac= 1.00D+00 NAtFMM=   60 NAOKFM=F Big=F
 Integral buffers will be    131072 words long.
 Raffenetti 2 integral format.
 Two-electron integral symmetry is turned on.
 One-electron integrals computed using PRISM.
 NBasis=   310 RedAO= T EigKep=  4.64D-04  NBF=   310
 NBsUse=   310 1.00D-06 EigRej= -1.00D+00 NBFU=   310
 ExpMin= 1.17D-01 ExpMax= 2.19D+04 ExpMxC= 3.30D+03 IAcc=3 IRadAn=         5 AccDes= 0.00D+00
 Harris functional with IExCor= 1009 and IRadAn=       5 diagonalized for initial guess.
 HarFok:  IExCor= 1009 AccDes= 0.00D+00 IRadAn=         5 IDoV= 1 UseB2=F ITyADJ=14
 ICtDFT=  3500011 ScaDFX=  1.000000  1.000000  1.000000  1.000000
 FoFCou: FMM=F IPFlag=           0 FMFlag=      100000 FMFlg1=           0
         NFxFlg=           0 DoJE=T BraDBF=F KetDBF=T FulRan=T
         wScrn=  0.000000 ICntrl=       500 IOpCl=  0 I1Cent=   200000004 NGrid=           0
         NMat0=    1 NMatS0=      1 NMatT0=    0 NMatD0=    1 NMtDS0=    0 NMtDT0=    0
 Petite list used in FoFCou.
 Initial guess <Sx>= 0.0000 <Sy>= 0.0000 <Sz>= 0.5000 <S**2>= 0.7500 S= 0.5000
 Requested convergence on RMS density matrix=1.00D-08 within 128 cycles.
 Requested convergence on MAX density matrix=1.00D-06.
 Requested convergence on             energy=1.00D-06.
 No special actions if energy rises.
 Integral accuracy reduced to 1.0D-05 until final iterations.
 Initial convergence to 1.0D-05 achieved.  Increase integral accuracy.
 SCF Done:  E(UM062X) =  -1506.13219747     A.U. after   22 cycles
            NFock= 22  Conv=0.65D-08     -V/T= 2.0057
 <Sx>= 0.0000 <Sy>= 0.0000 <Sz>= 0.5000 <S**2>= 0.7757 S= 0.5128
 <L.S>=  0.00000000000    
 Annihilation of the first spin contaminant:
 S**2 before annihilation     0.7757,   after     0.7505

 **********************************************************************

            Population analysis using the SCF Density.

 **********************************************************************

 Orbital symmetries:
 Alpha Orbitals:
       Occupied  (A) (A) (A) (A) (A) (A) (A) (A) (A) (A) (A) (A)
                 (A) (A) (A) (A) (A) (A) (A) (A) (A) (A) (A) (A)
                 (A) (A) (A) (A) (A) (A) (A) (A) (A) (A) (A) (A)
                 (A) (A) (A) (A) (A) (A) (A) (A) (A) (A) (A) (A)
                 (A) (A) (A) (A) (A) (A) (A) (A) (A) (A) (A) (A)
                 (A) (A) (A) (A) (A) (A) (A) (A) (A) (A) (A) (A)
                 (A) (A) (A)
       Virtual   (A) (A) (A) (A) (A) (A) (A) (A) (A) (A) (A) (A)
                 (A) (A) (A) (A) (A) (A) (A) (A) (A) (A) (A) (A)
                 (A) (A) (A) (A) (A) (A) (A) (A) (A) (A) (A) (A)
                 (A) (A) (A) (A) (A) (A) (A) (A) (A) (A) (A) (A)
                 (A) (A) (A) (A) (A) (A) (A) (A) (A) (A) (A) (A)
                 (A) (A) (A) (A) (A) (A) (A) (A) (A) (A) (A) (A)
                 (A) (A) (A) (A) (A) (A) (A) (A) (A) (A) (A) (A)
                 (A) (A) (A) (A) (A) (A) (A) (A) (A) (A) (A) (A)
                 (A) (A) (A) (A) (A) (A) (A) (A) (A) (A) (A) (A)
                 (A) (A) (A) (A) (A) (A) (A) (A) (A) (A) (A) (A)
                 (A) (A) (A) (A) (A) (A) (A) (A) (A) (A) (A) (A)
                 (A) (A) (A) (A) (A) (A) (A) (A) (A) (A) (A) (A)
                 (A) (A) (A) (A) (A) (A) (A) (A) (A) (A) (A) (A)
                 (A) (A) (A) (A) (A) (A) (A) (A) (A) (A) (A) (A)
                 (A) (A) (A) (A) (A) (A) (A) (A) (A) (A) (A) (A)
                 (A) (A) (A) (A) (A) (A) (A) (A) (A) (A) (A) (A)
                 (A) (A) (A) (A) (A) (A) (A) (A) (A) (A) (A) (A)
                 (A) (A) (A) (A) (A) (A) (A) (A) (A) (A) (A) (A)
                 (A) (A) (A) (A) (A) (A) (A) (A) (A) (A) (A) (A)
                 (A) (A) (A) (A) (A) (A) (A)
 Beta  Orbitals:
       Occupied  (A) (A) (A) (A) (A) (A) (A) (A) (A) (A) (A) (A)
                 (A) (A) (A) (A) (A) (A) (A) (A) (A) (A) (A) (A)
                 (A) (A) (A) (A) (A) (A) (A) (A) (A) (A) (A) (A)
                 (A) (A) (A) (A) (A) (A) (A) (A) (A) (A) (A) (A)
                 (A) (A) (A) (A) (A) (A) (A) (A) (A) (A) (A) (A)
                 (A) (A) (A) (A) (A) (A) (A) (A) (A) (A) (A) (A)
                 (A) (A)
       Virtual   (A) (A) (A) (A) (A) (A) (A) (A) (A) (A) (A) (A)
                 (A) (A) (A) (A) (A) (A) (A) (A) (A) (A) (A) (A)
                 (A) (A) (A) (A) (A) (A) (A) (A) (A) (A) (A) (A)
                 (A) (A) (A) (A) (A) (A) (A) (A) (A) (A) (A) (A)
                 (A) (A) (A) (A) (A) (A) (A) (A) (A) (A) (A) (A)
                 (A) (A) (A) (A) (A) (A) (A) (A) (A) (A) (A) (A)
                 (A) (A) (A) (A) (A) (A) (A) (A) (A) (A) (A) (A)
                 (A) (A) (A) (A) (A) (A) (A) (A) (A) (A) (A) (A)
                 (A) (A) (A) (A) (A) (A) (A) (A) (A) (A) (A) (A)
                 (A) (A) (A) (A) (A) (A) (A) (A) (A) (A) (A) (A)
                 (A) (A) (A) (A) (A) (A) (A) (A) (A) (A) (A) (A)
                 (A) (A) (A) (A) (A) (A) (A) (A) (A) (A) (A) (A)
                 (A) (A) (A) (A) (A) (A) (A) (A) (A) (A) (A) (A)
                 (A) (A) (A) (A) (A) (A) (A) (A) (A) (A) (A) (A)
                 (A) (A) (A) (A) (A) (A) (A) (A) (A) (A) (A) (A)
                 (A) (A) (A) (A) (A) (A) (A) (A) (A) (A) (A) (A)
                 (A) (A) (A) (A) (A) (A) (A) (A) (A) (A) (A) (A)
                 (A) (A) (A) (A) (A) (A) (A) (A) (A) (A) (A) (A)
                 (A) (A) (A) (A) (A) (A) (A) (A) (A) (A) (A) (A)
                 (A) (A) (A) (A) (A) (A) (A) (A)
 The electronic state is 2-A.
 Alpha  occ. eigenvalues --  -90.12327 -89.94882 -19.63247 -19.63098 -14.77510
 Alpha  occ. eigenvalues --  -10.64529 -10.60497 -10.60167 -10.59462 -10.58328
 Alpha  occ. eigenvalues --  -10.57965 -10.57625 -10.57190 -10.56949 -10.56644
 Alpha  occ. eigenvalues --  -10.55718 -10.54675 -10.53833  -8.44029  -8.29400
 Alpha  occ. eigenvalues --   -6.36193  -6.36117  -6.36035  -6.21409  -6.21209
 Alpha  occ. eigenvalues --   -6.20945  -1.21931  -1.11235  -1.08217  -0.97447
 Alpha  occ. eigenvalues --   -0.95413  -0.90491  -0.89811  -0.85592  -0.83878
 Alpha  occ. eigenvalues --   -0.82526  -0.76794  -0.75738  -0.69517  -0.68954
 Alpha  occ. eigenvalues --   -0.68180  -0.67275  -0.64212  -0.59983  -0.58452
 Alpha  occ. eigenvalues --   -0.57162  -0.56207  -0.55036  -0.54740  -0.52508
 Alpha  occ. eigenvalues --   -0.51906  -0.51391  -0.50334  -0.49486  -0.49101
 Alpha  occ. eigenvalues --   -0.47360  -0.47078  -0.46790  -0.45348  -0.44127
 Alpha  occ. eigenvalues --   -0.43920  -0.42197  -0.41359  -0.40500  -0.40066
 Alpha  occ. eigenvalues --   -0.39571  -0.38965  -0.38280  -0.37855  -0.37029
 Alpha  occ. eigenvalues --   -0.36313  -0.34972  -0.33239  -0.29470  -0.23799
 Alpha virt. eigenvalues --    0.01710   0.02704   0.04176   0.07516   0.09610
 Alpha virt. eigenvalues --    0.11137   0.12695   0.13310   0.13893   0.14052
 Alpha virt. eigenvalues --    0.14257   0.16082   0.17188   0.18055   0.18453
 Alpha virt. eigenvalues --    0.18701   0.19874   0.20447   0.20835   0.21326
 Alpha virt. eigenvalues --    0.21830   0.22115   0.22557   0.23096   0.23479
 Alpha virt. eigenvalues --    0.24053   0.25007   0.26468   0.28329   0.29179
 Alpha virt. eigenvalues --    0.30104   0.30991   0.31791   0.32283   0.33936
 Alpha virt. eigenvalues --    0.36212   0.39962   0.40176   0.41477   0.43648
 Alpha virt. eigenvalues --    0.44273   0.45886   0.46345   0.50317   0.51400
 Alpha virt. eigenvalues --    0.52550   0.53785   0.55724   0.56337   0.56913
 Alpha virt. eigenvalues --    0.57482   0.58477   0.58870   0.59883   0.60169
 Alpha virt. eigenvalues --    0.61391   0.61986   0.62745   0.63782   0.64239
 Alpha virt. eigenvalues --    0.64938   0.65311   0.66997   0.67539   0.67995
 Alpha virt. eigenvalues --    0.69136   0.71557   0.72308   0.73242   0.73548
 Alpha virt. eigenvalues --    0.74800   0.76005   0.77965   0.79378   0.80290
 Alpha virt. eigenvalues --    0.82262   0.82987   0.85696   0.85946   0.86837
 Alpha virt. eigenvalues --    0.87669   0.88075   0.88791   0.89412   0.90118
 Alpha virt. eigenvalues --    0.90618   0.91616   0.91695   0.92587   0.93746
 Alpha virt. eigenvalues --    0.94316   0.95294   0.95787   0.96247   0.96798
 Alpha virt. eigenvalues --    0.97616   0.97879   0.98520   0.99380   1.00368
 Alpha virt. eigenvalues --    1.00993   1.02244   1.03069   1.03534   1.05587
 Alpha virt. eigenvalues --    1.07003   1.07609   1.08575   1.09426   1.09828
 Alpha virt. eigenvalues --    1.11998   1.13737   1.14322   1.15269   1.16727
 Alpha virt. eigenvalues --    1.18380   1.19046   1.21074   1.22863   1.25783
 Alpha virt. eigenvalues --    1.27516   1.30543   1.30859   1.31829   1.32508
 Alpha virt. eigenvalues --    1.35694   1.39768   1.41268   1.42559   1.44136
 Alpha virt. eigenvalues --    1.45605   1.47714   1.49250   1.50866   1.52623
 Alpha virt. eigenvalues --    1.53581   1.53788   1.55957   1.57133   1.59972
 Alpha virt. eigenvalues --    1.61303   1.62604   1.69727   1.72775   1.74945
 Alpha virt. eigenvalues --    1.76337   1.79613   1.81847   1.82493   1.83345
 Alpha virt. eigenvalues --    1.85949   1.86934   1.87631   1.88051   1.89231
 Alpha virt. eigenvalues --    1.91771   1.92824   1.92962   1.93786   1.95284
 Alpha virt. eigenvalues --    1.97293   1.98391   1.99341   2.00107   2.00600
 Alpha virt. eigenvalues --    2.02411   2.03433   2.03923   2.05586   2.06626
 Alpha virt. eigenvalues --    2.09168   2.10305   2.11234   2.12027   2.14038
 Alpha virt. eigenvalues --    2.14467   2.15219   2.16059   2.18309   2.19759
 Alpha virt. eigenvalues --    2.20025   2.23089   2.25387   2.26515   2.26651
 Alpha virt. eigenvalues --    2.28957   2.30694   2.32323   2.33951   2.37352
 Alpha virt. eigenvalues --    2.38768   2.39189   2.42553   2.43683   2.49537
 Alpha virt. eigenvalues --    2.51463   2.52570   2.53558   2.58129   2.58520
 Alpha virt. eigenvalues --    2.61407   2.63256   2.63990   2.66774   2.69364
 Alpha virt. eigenvalues --    2.72168   2.74031   2.76667   2.80389   2.81959
 Alpha virt. eigenvalues --    2.85291   2.86179   2.89758   2.92895   2.99427
 Alpha virt. eigenvalues --    3.17229   3.37002   3.90893   3.98420   4.02036
 Alpha virt. eigenvalues --    4.07478   4.09098   4.12013   4.13978   4.19048
 Alpha virt. eigenvalues --    4.23860   4.26496   4.33618   4.37427   4.39295
 Alpha virt. eigenvalues --    4.44028   4.49000   4.58430   4.70453   4.71671
  Beta  occ. eigenvalues --  -90.12209 -89.94806 -19.63200 -19.63022 -14.76928
  Beta  occ. eigenvalues --  -10.64619 -10.60339 -10.60256 -10.59439 -10.58286
  Beta  occ. eigenvalues --  -10.57967 -10.57465 -10.57268 -10.56835 -10.56701
  Beta  occ. eigenvalues --  -10.55721 -10.54673 -10.53832  -8.43964  -8.29373
  Beta  occ. eigenvalues --   -6.36081  -6.36005  -6.35904  -6.21391  -6.21189
  Beta  occ. eigenvalues --   -6.20724  -1.21687  -1.11022  -1.07018  -0.97206
  Beta  occ. eigenvalues --   -0.94906  -0.90209  -0.89596  -0.85301  -0.83450
  Beta  occ. eigenvalues --   -0.82329  -0.76556  -0.75379  -0.69052  -0.68664
  Beta  occ. eigenvalues --   -0.67933  -0.67050  -0.63928  -0.59672  -0.58141
  Beta  occ. eigenvalues --   -0.56741  -0.55874  -0.54761  -0.54570  -0.52313
  Beta  occ. eigenvalues --   -0.51695  -0.51130  -0.50111  -0.49347  -0.48232
  Beta  occ. eigenvalues --   -0.47132  -0.46621  -0.46388  -0.45233  -0.43871
  Beta  occ. eigenvalues --   -0.43530  -0.41951  -0.40483  -0.40142  -0.39789
  Beta  occ. eigenvalues --   -0.38909  -0.38757  -0.38068  -0.36830  -0.36597
  Beta  occ. eigenvalues --   -0.35437  -0.33685  -0.31863  -0.28004
  Beta virt. eigenvalues --   -0.09738   0.02757   0.03637   0.05187   0.07865
  Beta virt. eigenvalues --    0.10535   0.11303   0.12909   0.13711   0.13963
  Beta virt. eigenvalues --    0.14220   0.14375   0.16213   0.17281   0.18124
  Beta virt. eigenvalues --    0.18571   0.18867   0.19979   0.20571   0.21424
  Beta virt. eigenvalues --    0.21499   0.21951   0.22239   0.22661   0.23105
  Beta virt. eigenvalues --    0.23544   0.24169   0.25068   0.26656   0.28485
  Beta virt. eigenvalues --    0.29377   0.30251   0.31066   0.31917   0.32412
  Beta virt. eigenvalues --    0.34099   0.36423   0.40214   0.40354   0.41716
  Beta virt. eigenvalues --    0.43941   0.44483   0.46111   0.46507   0.50607
  Beta virt. eigenvalues --    0.51673   0.52685   0.54036   0.55907   0.56507
  Beta virt. eigenvalues --    0.57295   0.57852   0.58861   0.59286   0.59962
  Beta virt. eigenvalues --    0.60341   0.61625   0.62278   0.63019   0.64170
  Beta virt. eigenvalues --    0.64671   0.65332   0.65779   0.67434   0.67953
  Beta virt. eigenvalues --    0.68387   0.69268   0.71883   0.72496   0.73462
  Beta virt. eigenvalues --    0.73713   0.75029   0.76128   0.78025   0.79598
  Beta virt. eigenvalues --    0.80566   0.82574   0.83245   0.85848   0.86235
  Beta virt. eigenvalues --    0.87045   0.87859   0.88327   0.89184   0.89585
  Beta virt. eigenvalues --    0.90203   0.90981   0.91836   0.91871   0.92711
  Beta virt. eigenvalues --    0.93908   0.94573   0.95511   0.95893   0.96408
  Beta virt. eigenvalues --    0.97115   0.97717   0.98121   0.98689   0.99413
  Beta virt. eigenvalues --    1.00511   1.01111   1.03084   1.03262   1.03787
  Beta virt. eigenvalues --    1.05923   1.07210   1.07994   1.08950   1.09733
  Beta virt. eigenvalues --    1.10082   1.12105   1.13991   1.14892   1.15634
  Beta virt. eigenvalues --    1.17059   1.18723   1.19360   1.21305   1.23075
  Beta virt. eigenvalues --    1.25982   1.27792   1.30965   1.31362   1.31993
  Beta virt. eigenvalues --    1.32913   1.35927   1.40202   1.41466   1.43055
  Beta virt. eigenvalues --    1.44419   1.45796   1.48283   1.49380   1.51552
  Beta virt. eigenvalues --    1.53471   1.53712   1.54175   1.56120   1.57230
  Beta virt. eigenvalues --    1.60830   1.61644   1.62874   1.70073   1.73519
  Beta virt. eigenvalues --    1.75102   1.76530   1.79931   1.82084   1.82705
  Beta virt. eigenvalues --    1.83434   1.86260   1.87118   1.87733   1.88157
  Beta virt. eigenvalues --    1.89423   1.92057   1.93013   1.93243   1.94034
  Beta virt. eigenvalues --    1.95481   1.97397   1.98682   2.00129   2.00782
  Beta virt. eigenvalues --    2.01002   2.02714   2.03642   2.04008   2.05856
  Beta virt. eigenvalues --    2.06786   2.09444   2.10498   2.11430   2.12239
  Beta virt. eigenvalues --    2.14386   2.14749   2.15477   2.16380   2.18599
  Beta virt. eigenvalues --    2.19967   2.20259   2.23325   2.26064   2.26799
  Beta virt. eigenvalues --    2.27291   2.29129   2.30995   2.32967   2.33999
  Beta virt. eigenvalues --    2.37565   2.39001   2.39302   2.42954   2.43795
  Beta virt. eigenvalues --    2.49713   2.51709   2.53024   2.54024   2.58299
  Beta virt. eigenvalues --    2.58972   2.61676   2.63510   2.64836   2.67439
  Beta virt. eigenvalues --    2.69848   2.72418   2.74826   2.77250   2.80625
  Beta virt. eigenvalues --    2.82271   2.85461   2.86585   2.89885   2.93506
  Beta virt. eigenvalues --    2.99999   3.18242   3.37687   3.91148   3.99069
  Beta virt. eigenvalues --    4.02640   4.07678   4.09758   4.12411   4.14454
  Beta virt. eigenvalues --    4.19098   4.24202   4.26555   4.33758   4.38061
  Beta virt. eigenvalues --    4.39590   4.44076   4.49048   4.58372   4.70937
  Beta virt. eigenvalues --    4.71638
          Condensed to atoms (all electrons):
               1          2          3          4          5          6
     1  C    4.962858   0.490630  -0.074351  -0.037799  -0.039782   0.552301
     2  C    0.490630   4.624895   0.417134  -0.002149  -0.034184  -0.016163
     3  C   -0.074351   0.417134   5.223812   0.491752  -0.037419  -0.033094
     4  C   -0.037799  -0.002149   0.491752   4.955586   0.539631  -0.035665
     5  C   -0.039782  -0.034184  -0.037419   0.539631   4.889386   0.518911
     6  C    0.552301  -0.016163  -0.033094  -0.035665   0.518911   4.897707
     7  H    0.358635  -0.029156   0.006469   0.000003   0.003845  -0.039377
     8  H    0.000448   0.002464  -0.035745   0.369350  -0.033569   0.003462
     9  H    0.003587   0.000614   0.004051  -0.036674   0.369769  -0.035755
    10  H   -0.032821   0.002959   0.000534   0.003936  -0.037099   0.368746
    11  S    0.006890  -0.070484   0.299479  -0.063143   0.004202   0.000262
    12  N   -0.069698   0.427743  -0.097440   0.008644   0.000006   0.004948
    13  C    0.010306  -0.077849  -0.043333   0.003479  -0.000124  -0.000286
    14  S   -0.000099   0.001675   0.001527   0.000174  -0.000011  -0.000013
    15  O   -0.000006   0.003156  -0.000008  -0.000005   0.000000  -0.000003
    16  O   -0.000001  -0.000075  -0.000415   0.000019  -0.000000  -0.000000
    17  C    0.000004   0.000006   0.000028   0.000001  -0.000000  -0.000000
    18  C    0.000003  -0.000269   0.000086   0.000001  -0.000000  -0.000000
    19  H   -0.000000   0.000016  -0.000001  -0.000000   0.000000   0.000000
    20  H    0.000000   0.000001  -0.000001  -0.000000   0.000000  -0.000000
    21  C   -0.000217   0.005397   0.001678  -0.000045   0.000002   0.000002
    22  H   -0.000000   0.000005  -0.000005   0.000000  -0.000000   0.000000
    23  H   -0.000000   0.000003   0.000000  -0.000000   0.000000   0.000000
    24  C    0.000013  -0.000134   0.000025  -0.000005  -0.000000   0.000000
    25  H   -0.000047   0.000777   0.000047   0.000000  -0.000000   0.000000
    26  H   -0.000000   0.000027  -0.000128   0.000004   0.000000   0.000000
    27  H    0.000000  -0.000002  -0.000007  -0.000000   0.000000   0.000000
    28  C   -0.000028   0.000616  -0.001971  -0.000063   0.000011  -0.000007
    29  C   -0.000003   0.000013   0.000022   0.000001  -0.000000   0.000000
    30  H    0.000111   0.003767   0.001115  -0.000129  -0.000006  -0.000063
    31  H    0.000001   0.000009   0.000064   0.000000   0.000000   0.000001
    32  H    0.000000  -0.000000  -0.000000   0.000000  -0.000000   0.000000
    33  H    0.000000  -0.000001   0.000003  -0.000000   0.000000   0.000000
    34  H    0.000000   0.000000  -0.000001  -0.000000   0.000000  -0.000000
               7          8          9         10         11         12
     1  C    0.358635   0.000448   0.003587  -0.032821   0.006890  -0.069698
     2  C   -0.029156   0.002464   0.000614   0.002959  -0.070484   0.427743
     3  C    0.006469  -0.035745   0.004051   0.000534   0.299479  -0.097440
     4  C    0.000003   0.369350  -0.036674   0.003936  -0.063143   0.008644
     5  C    0.003845  -0.033569   0.369769  -0.037099   0.004202   0.000006
     6  C   -0.039377   0.003462  -0.035755   0.368746   0.000262   0.004948
     7  H    0.513638   0.000013  -0.000119  -0.004248  -0.000131  -0.002282
     8  H    0.000013   0.512357  -0.004020  -0.000129  -0.002388  -0.000112
     9  H   -0.000119  -0.004020   0.523885  -0.004020  -0.000146   0.000001
    10  H   -0.004248  -0.000129  -0.004020   0.524565   0.000018  -0.000091
    11  S   -0.000131  -0.002388  -0.000146   0.000018  15.499133  -0.063454
    12  N   -0.002282  -0.000112   0.000001  -0.000091  -0.063454   7.070073
    13  C   -0.000300  -0.000049   0.000000   0.000004   0.224524   0.210901
    14  S    0.000030  -0.000004   0.000000  -0.000000  -0.044418  -0.036797
    15  O    0.000018   0.000000   0.000000  -0.000000   0.000248   0.001265
    16  O   -0.000000  -0.000001  -0.000000   0.000000   0.010830   0.001299
    17  C   -0.000000  -0.000000   0.000000   0.000000   0.002663   0.000821
    18  C    0.000000   0.000000  -0.000000   0.000000  -0.000447   0.004961
    19  H    0.000000   0.000000   0.000000   0.000000  -0.000006   0.000288
    20  H   -0.000000  -0.000000  -0.000000  -0.000000  -0.000157  -0.000051
    21  C   -0.000007   0.000000  -0.000000  -0.000000  -0.057953  -0.053068
    22  H   -0.000000   0.000000   0.000000   0.000000   0.002798   0.000031
    23  H    0.000000  -0.000000  -0.000000  -0.000000  -0.000208  -0.000091
    24  C   -0.000000  -0.000000   0.000000  -0.000000  -0.002460  -0.003110
    25  H    0.000008   0.000000   0.000000  -0.000000   0.005820   0.002266
    26  H   -0.000000   0.000000   0.000000  -0.000000   0.005550   0.000062
    27  H    0.000000  -0.000000   0.000000  -0.000000   0.000501  -0.000145
    28  C    0.000004  -0.000001   0.000000  -0.000000  -0.006029   0.001890
    29  C   -0.000000   0.000000  -0.000000   0.000000  -0.000169   0.000151
    30  H    0.000011  -0.000006   0.000000  -0.000000   0.002339  -0.002227
    31  H    0.000003   0.000000  -0.000000  -0.000000   0.000410   0.000844
    32  H   -0.000000   0.000000   0.000000  -0.000000  -0.000003   0.000001
    33  H   -0.000000  -0.000000  -0.000000   0.000000   0.000226   0.000000
    34  H    0.000000  -0.000000   0.000000  -0.000000  -0.000005  -0.000002
              13         14         15         16         17         18
     1  C    0.010306  -0.000099  -0.000006  -0.000001   0.000004   0.000003
     2  C   -0.077849   0.001675   0.003156  -0.000075   0.000006  -0.000269
     3  C   -0.043333   0.001527  -0.000008  -0.000415   0.000028   0.000086
     4  C    0.003479   0.000174  -0.000005   0.000019   0.000001   0.000001
     5  C   -0.000124  -0.000011   0.000000  -0.000000  -0.000000  -0.000000
     6  C   -0.000286  -0.000013  -0.000003  -0.000000  -0.000000  -0.000000
     7  H   -0.000300   0.000030   0.000018  -0.000000  -0.000000   0.000000
     8  H   -0.000049  -0.000004   0.000000  -0.000001  -0.000000   0.000000
     9  H    0.000000   0.000000   0.000000  -0.000000   0.000000  -0.000000
    10  H    0.000004  -0.000000  -0.000000   0.000000   0.000000   0.000000
    11  S    0.224524  -0.044418   0.000248   0.010830   0.002663  -0.000447
    12  N    0.210901  -0.036797   0.001265   0.001299   0.000821   0.004961
    13  C    5.891296   0.132401  -0.048478  -0.046847  -0.071459  -0.047467
    14  S    0.132401  13.868056   0.456756   0.400858   0.158749  -0.028919
    15  O   -0.048478   0.456756   8.201145  -0.047413  -0.054265   0.001925
    16  O   -0.046847   0.400858  -0.047413   8.288801  -0.058052   0.000819
    17  C   -0.071459   0.158749  -0.054265  -0.058052   5.646091   0.288683
    18  C   -0.047467  -0.028919   0.001925   0.000819   0.288683   5.187886
    19  H   -0.000922  -0.009212   0.000799   0.001836   0.346784  -0.032681
    20  H    0.002286  -0.016352   0.000172   0.000917   0.359057  -0.021882
    21  C    0.250759  -0.069762   0.001550  -0.000067  -0.041040   0.336205
    22  H   -0.006763   0.003001   0.000020   0.003576  -0.041934   0.375490
    23  H    0.005166   0.002011  -0.000039  -0.000022  -0.026998   0.379821
    24  C   -0.039193   0.000384  -0.000023  -0.000065   0.004805  -0.045728
    25  H   -0.057713   0.000934  -0.000080  -0.000017  -0.002298  -0.047261
    26  H   -0.009429  -0.000259  -0.000000  -0.000012   0.000147  -0.004177
    27  H    0.006582  -0.000073   0.000000   0.000001   0.000099  -0.004415
    28  C   -0.005445   0.000148  -0.000000  -0.000000  -0.000196   0.004459
    29  C    0.000039   0.000002  -0.000000  -0.000000   0.000002  -0.000112
    30  H    0.003258   0.000088  -0.000000  -0.000000  -0.000006  -0.000013
    31  H   -0.001520  -0.000012  -0.000000   0.000000   0.000004   0.000088
    32  H    0.000003  -0.000000   0.000000   0.000000  -0.000000   0.000001
    33  H   -0.000012  -0.000000  -0.000000   0.000000   0.000000   0.000002
    34  H    0.000003   0.000000  -0.000000  -0.000000   0.000000  -0.000004
              19         20         21         22         23         24
     1  C   -0.000000   0.000000  -0.000217  -0.000000  -0.000000   0.000013
     2  C    0.000016   0.000001   0.005397   0.000005   0.000003  -0.000134
     3  C   -0.000001  -0.000001   0.001678  -0.000005   0.000000   0.000025
     4  C   -0.000000  -0.000000  -0.000045   0.000000  -0.000000  -0.000005
     5  C    0.000000   0.000000   0.000002  -0.000000   0.000000  -0.000000
     6  C    0.000000  -0.000000   0.000002   0.000000   0.000000   0.000000
     7  H    0.000000  -0.000000  -0.000007  -0.000000   0.000000  -0.000000
     8  H    0.000000  -0.000000   0.000000   0.000000  -0.000000  -0.000000
     9  H    0.000000  -0.000000  -0.000000   0.000000  -0.000000   0.000000
    10  H    0.000000  -0.000000  -0.000000   0.000000  -0.000000  -0.000000
    11  S   -0.000006  -0.000157  -0.057953   0.002798  -0.000208  -0.002460
    12  N    0.000288  -0.000051  -0.053068   0.000031  -0.000091  -0.003110
    13  C   -0.000922   0.002286   0.250759  -0.006763   0.005166  -0.039193
    14  S   -0.009212  -0.016352  -0.069762   0.003001   0.002011   0.000384
    15  O    0.000799   0.000172   0.001550   0.000020  -0.000039  -0.000023
    16  O    0.001836   0.000917  -0.000067   0.003576  -0.000022  -0.000065
    17  C    0.346784   0.359057  -0.041040  -0.041934  -0.026998   0.004805
    18  C   -0.032681  -0.021882   0.336205   0.375490   0.379821  -0.045728
    19  H    0.482542  -0.016086  -0.002276   0.004153  -0.004567  -0.000035
    20  H   -0.016086   0.452408   0.003648  -0.002442  -0.001532  -0.000081
    21  C   -0.002276   0.003648   5.161700  -0.032168  -0.030587   0.373588
    22  H    0.004153  -0.002442  -0.032168   0.516854  -0.025267  -0.003197
    23  H   -0.004567  -0.001532  -0.030587  -0.025267   0.513460  -0.002271
    24  C   -0.000035  -0.000081   0.373588  -0.003197  -0.002271   5.043393
    25  H    0.003961   0.000077   0.389946   0.004799  -0.004895  -0.034154
    26  H   -0.000001   0.000005  -0.035380   0.003377  -0.000206   0.379843
    27  H   -0.000006  -0.000003  -0.040088  -0.000230   0.003617   0.378763
    28  C    0.000000   0.000001  -0.037963  -0.000005  -0.000025   0.366661
    29  C    0.000000  -0.000000   0.004022  -0.000002  -0.000002  -0.049307
    30  H    0.000000   0.000000  -0.006777   0.000004   0.000000  -0.039240
    31  H   -0.000002   0.000000  -0.003045   0.000004   0.000002  -0.043423
    32  H   -0.000000   0.000000  -0.000135   0.000000   0.000000   0.004311
    33  H   -0.000000   0.000000   0.000087  -0.000001   0.000000  -0.004902
    34  H    0.000000  -0.000000  -0.000015   0.000000  -0.000001  -0.004779
              25         26         27         28         29         30
     1  C   -0.000047  -0.000000   0.000000  -0.000028  -0.000003   0.000111
     2  C    0.000777   0.000027  -0.000002   0.000616   0.000013   0.003767
     3  C    0.000047  -0.000128  -0.000007  -0.001971   0.000022   0.001115
     4  C    0.000000   0.000004  -0.000000  -0.000063   0.000001  -0.000129
     5  C   -0.000000   0.000000   0.000000   0.000011  -0.000000  -0.000006
     6  C    0.000000   0.000000   0.000000  -0.000007   0.000000  -0.000063
     7  H    0.000008  -0.000000   0.000000   0.000004  -0.000000   0.000011
     8  H    0.000000   0.000000  -0.000000  -0.000001   0.000000  -0.000006
     9  H    0.000000   0.000000   0.000000   0.000000  -0.000000   0.000000
    10  H   -0.000000  -0.000000  -0.000000  -0.000000   0.000000  -0.000000
    11  S    0.005820   0.005550   0.000501  -0.006029  -0.000169   0.002339
    12  N    0.002266   0.000062  -0.000145   0.001890   0.000151  -0.002227
    13  C   -0.057713  -0.009429   0.006582  -0.005445   0.000039   0.003258
    14  S    0.000934  -0.000259  -0.000073   0.000148   0.000002   0.000088
    15  O   -0.000080  -0.000000   0.000000  -0.000000  -0.000000  -0.000000
    16  O   -0.000017  -0.000012   0.000001  -0.000000  -0.000000  -0.000000
    17  C   -0.002298   0.000147   0.000099  -0.000196   0.000002  -0.000006
    18  C   -0.047261  -0.004177  -0.004415   0.004459  -0.000112  -0.000013
    19  H    0.003961  -0.000001  -0.000006   0.000000   0.000000   0.000000
    20  H    0.000077   0.000005  -0.000003   0.000001  -0.000000   0.000000
    21  C    0.389946  -0.035380  -0.040088  -0.037963   0.004022  -0.006777
    22  H    0.004799   0.003377  -0.000230  -0.000005  -0.000002   0.000004
    23  H   -0.004895  -0.000206   0.003617  -0.000025  -0.000002   0.000000
    24  C   -0.034154   0.379843   0.378763   0.366661  -0.049307  -0.039240
    25  H    0.547559   0.004894  -0.004202  -0.004269   0.000078  -0.000445
    26  H    0.004894   0.561587  -0.032954  -0.037839  -0.002211  -0.005347
    27  H   -0.004202  -0.032954   0.579340  -0.039391  -0.003677   0.005011
    28  C   -0.004269  -0.037839  -0.039391   5.024629   0.356704   0.384033
    29  C    0.000078  -0.002211  -0.003677   0.356704   5.097754  -0.035416
    30  H   -0.000445  -0.005347   0.005011   0.384033  -0.035416   0.561158
    31  H    0.004853   0.005120  -0.004133   0.388480  -0.037300  -0.033920
    32  H   -0.000001  -0.000039  -0.000014  -0.029328   0.381811  -0.002833
    33  H    0.000005   0.004077  -0.000258  -0.035438   0.383096  -0.004266
    34  H    0.000001  -0.000306   0.004610  -0.037176   0.383353   0.004709
              31         32         33         34
     1  C    0.000001   0.000000   0.000000   0.000000
     2  C    0.000009  -0.000000  -0.000001   0.000000
     3  C    0.000064  -0.000000   0.000003  -0.000001
     4  C    0.000000   0.000000  -0.000000  -0.000000
     5  C    0.000000  -0.000000   0.000000   0.000000
     6  C    0.000001   0.000000   0.000000  -0.000000
     7  H    0.000003  -0.000000  -0.000000   0.000000
     8  H    0.000000   0.000000  -0.000000  -0.000000
     9  H   -0.000000   0.000000  -0.000000   0.000000
    10  H   -0.000000  -0.000000   0.000000  -0.000000
    11  S    0.000410  -0.000003   0.000226  -0.000005
    12  N    0.000844   0.000001   0.000000  -0.000002
    13  C   -0.001520   0.000003  -0.000012   0.000003
    14  S   -0.000012  -0.000000  -0.000000   0.000000
    15  O   -0.000000   0.000000  -0.000000  -0.000000
    16  O    0.000000   0.000000   0.000000  -0.000000
    17  C    0.000004  -0.000000   0.000000   0.000000
    18  C    0.000088   0.000001   0.000002  -0.000004
    19  H   -0.000002  -0.000000  -0.000000   0.000000
    20  H    0.000000   0.000000   0.000000  -0.000000
    21  C   -0.003045  -0.000135   0.000087  -0.000015
    22  H    0.000004   0.000000  -0.000001   0.000000
    23  H    0.000002   0.000000   0.000000  -0.000001
    24  C   -0.043423   0.004311  -0.004902  -0.004779
    25  H    0.004853  -0.000001   0.000005   0.000001
    26  H    0.005120  -0.000039   0.004077  -0.000306
    27  H   -0.004133  -0.000014  -0.000258   0.004610
    28  C    0.388480  -0.029328  -0.035438  -0.037176
    29  C   -0.037300   0.381811   0.383096   0.383353
    30  H   -0.033920  -0.002833  -0.004266   0.004709
    31  H    0.568025  -0.002742   0.004664  -0.004070
    32  H   -0.002742   0.538382  -0.027370  -0.027774
    33  H    0.004664  -0.027370   0.550665  -0.030135
    34  H   -0.004070  -0.027774  -0.030135   0.557199
          Atomic-Atomic Spin Densities.
               1          2          3          4          5          6
     1  C    0.201166   0.025778   0.005255   0.000423  -0.010564  -0.016968
     2  C    0.025778  -0.115984   0.023023   0.000829  -0.002084   0.001715
     3  C    0.005255   0.023023   0.264020   0.012761  -0.013496  -0.001948
     4  C    0.000423   0.000829   0.012761  -0.120272  -0.008312   0.000977
     5  C   -0.010564  -0.002084  -0.013496  -0.008312   0.272645   0.017694
     6  C   -0.016968   0.001715  -0.001948   0.000977   0.017694  -0.095682
     7  H   -0.000479   0.000537  -0.000047   0.000002   0.000020   0.000326
     8  H    0.000006  -0.000060  -0.000554   0.001179  -0.000394  -0.000048
     9  H    0.000035  -0.000021   0.000047   0.000437  -0.000918   0.000438
    10  H   -0.000554  -0.000046  -0.000001  -0.000024  -0.000624   0.001200
    11  S   -0.000842  -0.001243  -0.054878   0.001310   0.000646   0.000060
    12  N   -0.012031  -0.055077  -0.014309  -0.000313   0.000215   0.000189
    13  C    0.000175   0.004128   0.000258  -0.000136   0.000006   0.000014
    14  S    0.000200   0.001035   0.002188   0.000016  -0.000011  -0.000004
    15  O   -0.000074  -0.000167  -0.000187  -0.000001   0.000000   0.000000
    16  O   -0.000002  -0.000063  -0.000297  -0.000002   0.000000   0.000000
    17  C   -0.000002  -0.000021  -0.000030  -0.000000   0.000000   0.000000
    18  C    0.000000  -0.000005  -0.000003   0.000000   0.000000  -0.000000
    19  H    0.000000  -0.000001   0.000000   0.000000  -0.000000  -0.000000
    20  H    0.000000   0.000000   0.000001   0.000000  -0.000000  -0.000000
    21  C    0.000007   0.000821   0.000817  -0.000005  -0.000001  -0.000000
    22  H   -0.000000  -0.000000   0.000000  -0.000000   0.000000   0.000000
    23  H    0.000000   0.000000   0.000000  -0.000000  -0.000000  -0.000000
    24  C    0.000000   0.000022  -0.000021   0.000001   0.000000  -0.000000
    25  H   -0.000001  -0.000055  -0.000017   0.000000   0.000000  -0.000000
    26  H   -0.000000  -0.000004  -0.000038  -0.000000   0.000000   0.000000
    27  H    0.000000   0.000003   0.000001  -0.000000  -0.000000  -0.000000
    28  C   -0.000008  -0.000100  -0.000070  -0.000005   0.000000   0.000000
    29  C   -0.000002  -0.000029  -0.000041  -0.000000   0.000000   0.000000
    30  H    0.000088   0.000004   0.001091   0.000016  -0.000020  -0.000002
    31  H   -0.000006  -0.000032  -0.000018   0.000000   0.000000   0.000000
    32  H    0.000000   0.000000   0.000000  -0.000000  -0.000000  -0.000000
    33  H    0.000000   0.000000  -0.000000   0.000000  -0.000000  -0.000000
    34  H    0.000000   0.000000   0.000000  -0.000000  -0.000000  -0.000000
               7          8          9         10         11         12
     1  C   -0.000479   0.000006   0.000035  -0.000554  -0.000842  -0.012031
     2  C    0.000537  -0.000060  -0.000021  -0.000046  -0.001243  -0.055077
     3  C   -0.000047  -0.000554   0.000047  -0.000001  -0.054878  -0.014309
     4  C    0.000002   0.001179   0.000437  -0.000024   0.001310  -0.000313
     5  C    0.000020  -0.000394  -0.000918  -0.000624   0.000646   0.000215
     6  C    0.000326  -0.000048   0.000438   0.001200   0.000060   0.000189
     7  H   -0.009388  -0.000000   0.000003  -0.000024  -0.000003  -0.000246
     8  H   -0.000000   0.003413  -0.000014  -0.000001   0.000079   0.000000
     9  H    0.000003  -0.000014  -0.012847  -0.000026   0.000003   0.000000
    10  H   -0.000024  -0.000001  -0.000026   0.002831   0.000000  -0.000000
    11  S   -0.000003   0.000079   0.000003   0.000000   0.128791   0.012310
    12  N   -0.000246   0.000000   0.000000  -0.000000   0.012310   0.583374
    13  C    0.000003   0.000000   0.000000  -0.000000   0.005579  -0.014634
    14  S   -0.000001   0.000000  -0.000000  -0.000000  -0.017692  -0.023173
    15  O    0.000000  -0.000000   0.000000   0.000000   0.000635   0.005107
    16  O    0.000000  -0.000000   0.000000  -0.000000   0.006048   0.000534
    17  C    0.000000  -0.000000   0.000000  -0.000000   0.001150   0.001444
    18  C   -0.000000  -0.000000  -0.000000  -0.000000  -0.000255  -0.000084
    19  H   -0.000000  -0.000000  -0.000000   0.000000  -0.000008  -0.000025
    20  H   -0.000000   0.000000  -0.000000   0.000000  -0.000074  -0.000027
    21  C    0.000001   0.000000   0.000000  -0.000000  -0.001804  -0.007234
    22  H    0.000000  -0.000000  -0.000000   0.000000   0.000001   0.000005
    23  H    0.000000   0.000000   0.000000   0.000000   0.000004  -0.000003
    24  C    0.000000   0.000000   0.000000   0.000000  -0.000860   0.000160
    25  H   -0.000001  -0.000000  -0.000000   0.000000  -0.000068  -0.000149
    26  H    0.000000   0.000000  -0.000000  -0.000000   0.000911   0.000047
    27  H    0.000000   0.000000  -0.000000  -0.000000  -0.000027  -0.000029
    28  C   -0.000000   0.000000  -0.000000   0.000000   0.000785   0.001161
    29  C   -0.000000  -0.000000  -0.000000  -0.000000   0.000321   0.000077
    30  H    0.000000  -0.000000   0.000000  -0.000000  -0.001792  -0.001572
    31  H   -0.000000  -0.000000  -0.000000   0.000000   0.000034   0.000213
    32  H    0.000000  -0.000000   0.000000  -0.000000  -0.000000  -0.000000
    33  H    0.000000   0.000000   0.000000   0.000000  -0.000017  -0.000000
    34  H   -0.000000   0.000000   0.000000   0.000000  -0.000005  -0.000001
              13         14         15         16         17         18
     1  C    0.000175   0.000200  -0.000074  -0.000002  -0.000002   0.000000
     2  C    0.004128   0.001035  -0.000167  -0.000063  -0.000021  -0.000005
     3  C    0.000258   0.002188  -0.000187  -0.000297  -0.000030  -0.000003
     4  C   -0.000136   0.000016  -0.000001  -0.000002  -0.000000   0.000000
     5  C    0.000006  -0.000011   0.000000   0.000000   0.000000   0.000000
     6  C    0.000014  -0.000004   0.000000   0.000000   0.000000  -0.000000
     7  H    0.000003  -0.000001   0.000000   0.000000   0.000000  -0.000000
     8  H    0.000000   0.000000  -0.000000  -0.000000  -0.000000  -0.000000
     9  H    0.000000  -0.000000   0.000000   0.000000   0.000000  -0.000000
    10  H   -0.000000  -0.000000   0.000000  -0.000000  -0.000000  -0.000000
    11  S    0.005579  -0.017692   0.000635   0.006048   0.001150  -0.000255
    12  N   -0.014634  -0.023173   0.005107   0.000534   0.001444  -0.000084
    13  C   -0.096500   0.032200  -0.000326  -0.000636  -0.001911   0.003192
    14  S    0.032200   0.154600  -0.013262  -0.020337  -0.022073   0.005048
    15  O   -0.000326  -0.013262   0.027563   0.000859   0.000308  -0.000073
    16  O   -0.000636  -0.020337   0.000859   0.044364   0.001750  -0.000411
    17  C   -0.001911  -0.022073   0.000308   0.001750   0.043956  -0.003381
    18  C    0.003192   0.005048  -0.000073  -0.000411  -0.003381  -0.000112
    19  H    0.000012   0.000578  -0.000003  -0.000017  -0.000531   0.000019
    20  H    0.000163   0.001855   0.000086   0.000103  -0.004530  -0.000334
    21  C   -0.010878  -0.020758   0.000401   0.000823   0.005949  -0.006303
    22  H   -0.000106  -0.000187   0.000001   0.000018   0.000138   0.000213
    23  H   -0.000158  -0.000374   0.000001   0.000006  -0.000466   0.000719
    24  C    0.001901   0.000226  -0.000000  -0.000003  -0.000008   0.000481
    25  H    0.001082   0.000538  -0.000012  -0.000005  -0.000143   0.000595
    26  H    0.000045   0.000056  -0.000000  -0.000002  -0.000010   0.000154
    27  H   -0.000108  -0.000022   0.000000   0.000000  -0.000002  -0.000213
    28  C   -0.000004   0.000076  -0.000000  -0.000000  -0.000007   0.000097
    29  C    0.000016   0.000002  -0.000000  -0.000000  -0.000000   0.000005
    30  H   -0.000197  -0.000044   0.000000   0.000000   0.000002  -0.000012
    31  H    0.000005   0.000004  -0.000000  -0.000000  -0.000000   0.000008
    32  H   -0.000001  -0.000000   0.000000   0.000000   0.000000  -0.000000
    33  H    0.000000  -0.000000   0.000000   0.000000   0.000000   0.000000
    34  H   -0.000000  -0.000000   0.000000   0.000000  -0.000000  -0.000000
              19         20         21         22         23         24
     1  C    0.000000   0.000000   0.000007  -0.000000   0.000000   0.000000
     2  C   -0.000001   0.000000   0.000821  -0.000000   0.000000   0.000022
     3  C    0.000000   0.000001   0.000817   0.000000   0.000000  -0.000021
     4  C    0.000000   0.000000  -0.000005  -0.000000  -0.000000   0.000001
     5  C   -0.000000  -0.000000  -0.000001   0.000000  -0.000000   0.000000
     6  C   -0.000000  -0.000000  -0.000000   0.000000  -0.000000  -0.000000
     7  H   -0.000000  -0.000000   0.000001   0.000000   0.000000   0.000000
     8  H   -0.000000   0.000000   0.000000  -0.000000   0.000000   0.000000
     9  H   -0.000000  -0.000000   0.000000  -0.000000   0.000000   0.000000
    10  H    0.000000   0.000000  -0.000000   0.000000   0.000000   0.000000
    11  S   -0.000008  -0.000074  -0.001804   0.000001   0.000004  -0.000860
    12  N   -0.000025  -0.000027  -0.007234   0.000005  -0.000003   0.000160
    13  C    0.000012   0.000163  -0.010878  -0.000106  -0.000158   0.001901
    14  S    0.000578   0.001855  -0.020758  -0.000187  -0.000374   0.000226
    15  O   -0.000003   0.000086   0.000401   0.000001   0.000001  -0.000000
    16  O   -0.000017   0.000103   0.000823   0.000018   0.000006  -0.000003
    17  C   -0.000531  -0.004530   0.005949   0.000138  -0.000466  -0.000008
    18  C    0.000019  -0.000334  -0.006303   0.000213   0.000719   0.000481
    19  H   -0.000972   0.000247  -0.000180  -0.000015  -0.000014  -0.000002
    20  H    0.000247   0.006135  -0.000330  -0.000086  -0.000212   0.000002
    21  C   -0.000180  -0.000330   0.073198  -0.000040  -0.000036  -0.001779
    22  H   -0.000015  -0.000086  -0.000040  -0.000135   0.000107  -0.000001
    23  H   -0.000014  -0.000212  -0.000036   0.000107   0.001716   0.000071
    24  C   -0.000002   0.000002  -0.001779  -0.000001   0.000071  -0.002692
    25  H   -0.000004   0.000016  -0.001342  -0.000016  -0.000077  -0.000195
    26  H    0.000000   0.000001  -0.000343  -0.000009  -0.000024  -0.000405
[...]
 000151,0.00071718,0.00027657,0.00075148,-0.00000358,-0.00000475,0.0000
 0793,0.00003354,-0.00000260,0.00001577,0.00718808,-0.01622538,-0.00350
 407,0.00005760,-0.00010482,-0.00008751,-0.00127662,0.00078057,-0.00052
 056,-0.00168012,0.00161047,-0.00038802,0.02047314,-0.19189293,-0.04322
 429,0.01015866,0.51067785,-0.00005570,-0.00002333,-0.00007187,0.000065
 92,-0.00001400,-0.00005826,-0.00004748,0.00000132,-0.00002479,-0.00000
 468,0.00000718,0.00008099,0.00001682,0.00000429,0.00000988,0.00002858,
 -0.00000071,-0.00003966,0.00000800,0.00001230,0.00000705,0.00001466,0.
 00001882,-0.00001587,0.00000879,0.00000009,0.00000607,0.00000730,0.000
 00076,-0.00000308,0.00007248,0.00018027,0.00011503,0.00002832,-0.00003
 551,-0.00010397,-0.00034257,-0.00024986,0.00018860,-0.00006215,-0.0002
 8483,0.00008722,0.00004690,0.00015089,0.00003193,-0.00001148,0.0000808
 9,-0.00012964,-0.00038684,0.00013160,-0.00016268,0.00004401,0.00089462
 ,0.00081888,0.00000520,0.00000446,0.00000007,0.00000717,0.00016629,0.0
 0004103,-0.00285724,0.00066719,-0.00193160,0.00010433,-0.00004093,-0.0
 0000443,-0.00000060,-0.00000957,-0.00000773,-0.00091882,0.01205015,0.0
 0534017,-0.00006231,0.00001215,0.00040754,-0.00060034,0.00123951,0.000
 65023,0.00027556,-0.00017931,0.00001430,0.00879178,-0.04453016,-0.0990
 2279,0.00938629,-0.03210904,0.57405215,0.00016234,0.00007944,0.0000747
 9,0.00035319,-0.00005041,0.00002704,0.00106229,0.00010812,0.00028957,-
 0.00032279,0.00007639,-0.00006501,0.00002538,0.00002029,0.00005725,-0.
 00006876,-0.00000717,0.00003830,-0.00000395,0.00000326,-0.00000900,-0.
 00000058,-0.00000956,0.00000976,-0.00001700,-0.00000187,0.00000177,-0.
 00001663,-0.00000349,-0.00000360,-0.00014115,-0.00118795,-0.00014805,0
 .00018749,-0.00036896,-0.00012203,-0.00089491,0.00115596,0.00057790,-0
 .00063331,0.00027478,0.00014011,0.00019956,-0.00003352,-0.00003365,0.0
 0029968,-0.00005762,-0.00005583,0.00009054,-0.00005231,-0.00003679,0.0
 0001775,0.00020803,-0.00010047,0.00001655,0.00002433,-0.00000415,0.000
 04143,0.00006725,-0.00002395,0.00043862,-0.00118302,-0.00003810,0.0000
 1614,-0.00007830,0.00002690,0.00026495,-0.00000992,-0.00004397,-0.0234
 6499,-0.01668737,0.00755506,-0.00008422,0.00014184,-0.00000315,0.00095
 445,-0.00019854,0.00003505,-0.00413766,0.00281644,-0.00259527,-0.20324
 626,-0.12189728,0.04901532,0.00650783,0.00512901,-0.00215768,0.2221971
 2,0.00008658,0.00014401,0.00008201,-0.00081956,-0.00103951,0.00030772,
 0.00010876,-0.00051817,-0.00003011,-0.00024839,-0.00006453,-0.00002907
 ,0.00014433,0.00004941,0.00009621,0.00006410,-0.00000779,0.00004245,0.
 00000825,0.00001019,0.00000683,0.00001085,0.00001930,-0.00002101,0.000
 00820,0.00002133,0.00000149,0.00000661,-0.00000249,-0.00000045,0.00029
 696,-0.00194505,0.00127631,0.00058140,-0.00061733,-0.00029831,0.000062
 50,-0.00058692,-0.00002090,0.00017011,-0.00023315,0.00012680,0.0000015
 8,0.00013774,0.00004851,-0.00003432,0.00001575,-0.00011073,-0.00012636
 ,0.00003055,-0.00002827,0.00004588,0.00010633,0.00003031,0.00000080,-0
 .00000431,-0.00000112,-0.00001957,0.00000659,0.00002179,-0.00041370,0.
 00087552,-0.00035552,-0.00001699,0.00002777,-0.00001520,-0.00008237,-0
 .00004006,0.00002763,0.01065347,0.00829476,-0.00413355,-0.00006580,0.0
 0003844,-0.00006506,-0.00085708,0.00006776,0.00003270,0.00294632,-0.00
 048908,0.00127493,-0.12235164,-0.14302888,0.03879078,-0.02338461,-0.02
 049615,0.00749791,0.13104581,0.16273532,-0.00025779,0.00001522,-0.0001
 3046,-0.00013724,-0.00045498,-0.00003864,0.00079393,0.00058473,0.00060
 912,-0.00039323,-0.00011788,-0.00006408,0.00016607,0.00005600,0.000334
 19,0.00008917,0.00000118,-0.00025006,-0.00000312,-0.00004923,-0.000021
 41,0.00002933,0.00002155,-0.00002939,-0.00000335,0.00000050,-0.0000050
 9,0.00000813,-0.00001061,-0.00000791,-0.00071299,0.00111764,-0.0013811
 5,0.00010764,0.00032002,-0.00042507,-0.00000618,0.00008352,0.00075429,
 0.00002756,0.00002726,0.00005054,-0.00001406,-0.00002675,-0.00002163,0
 .00000744,-0.00000391,-0.00005573,0.00007262,0.00000243,-0.00000477,0.
 00000374,-0.00003816,-0.00006699,-0.00000049,0.00000567,0.00000049,0.0
 0000267,-0.00000347,-0.00000516,0.00070036,-0.00019642,0.00020902,-0.0
 0001722,-0.00001722,0.00000541,0.00005232,-0.00002533,-0.00003937,-0.0
 1012995,-0.00834036,0.00299081,0.00005448,0.00014401,-0.00004384,0.000
 41764,-0.00059705,0.00036307,-0.00274218,0.00076483,-0.00024841,0.0498
 0012,0.03949833,-0.06611822,-0.01007094,-0.00843741,0.00289427,-0.0532
 0003,-0.04267439,0.06795244,-0.00007900,0.00001502,-0.00000581,0.00011
 455,0.00002829,0.00002904,0.00026624,0.00021453,0.00025120,-0.00007393
 ,-0.00003520,-0.00001942,0.00005179,0.00001772,0.00011308,0.00003766,0
 .00001167,-0.00008319,-0.00000131,-0.00003751,-0.00001519,0.00000384,0
 .00001864,-0.00001715,-0.00000054,0.00000181,-0.00000262,-0.00000384,-
 0.00000889,-0.00000329,-0.00014887,-0.00067353,0.00006301,-0.00009182,
 0.00032378,-0.00006723,-0.00004839,0.00001856,0.00023356,-0.00007182,0
 .00004055,-0.00003851,0.00001244,-0.00000474,0.00000506,0.00005021,0.0
 0000896,0.00001726,0.00003721,-0.00003102,0.00011624,-0.00009629,-0.00
 015878,0.00005344,-0.00000154,0.00004667,0.00001189,0.00000128,-0.0000
 0950,-0.00001326,0.00113504,-0.00126135,-0.00098574,0.00012564,-0.0000
 6524,0.00015815,-0.00005525,-0.00000148,-0.00000639,-0.00009283,0.0024
 4906,-0.03139484,-0.00001798,0.00037117,0.00074386,-0.00495779,0.00258
 067,-0.00223959,0.00118882,-0.00068084,0.00037388,-0.05088770,-0.00210
 831,0.01658080,-0.00090197,-0.00034214,0.00649780,-0.00117284,0.000144
 15,0.02567750,0.05494381,-0.00010444,0.00000173,-0.00001352,-0.0000305
 9,-0.00000013,-0.00000555,0.00050390,0.00014340,0.00030704,-0.00018898
 ,-0.00004767,-0.00005554,0.00008177,0.00004194,0.00017997,0.00007646,-
 0.00000152,-0.00013496,-0.00001420,-0.00002720,-0.00001473,0.00000526,
 0.00000316,-0.00000598,-0.00000487,0.00000048,-0.00000461,0.00000127,-
 0.00000290,-0.00000347,-0.00005533,-0.00041722,-0.00017322,-0.00009116
 ,0.00048572,-0.00022637,-0.00011894,0.00005740,0.00033225,-0.00005260,
 0.00000682,0.00015550,0.00000102,-0.00000768,-0.00003426,0.00005964,-0
 .00002955,-0.00004360,-0.00002035,0.00000166,-0.00003808,0.00014368,0.
 00003977,-0.00014238,0.00001256,-0.00002517,-0.00001745,0.00000042,0.0
 0000999,-0.00000221,-0.00042172,0.00075403,0.00157855,-0.00009643,0.00
 001002,-0.00011120,-0.00000812,-0.00000653,0.00000589,-0.00076512,-0.0
 0173235,0.01250843,0.00037568,-0.00032547,-0.00045242,0.00242540,-0.00
 058826,0.00075631,-0.00014504,0.00029649,-0.00069270,-0.00187681,-0.04
 917197,0.00805275,0.00250866,0.00030257,-0.03326922,-0.00047966,-0.000
 63762,0.02011801,-0.00235029,0.05434355,0.00010618,-0.00002567,-0.0000
 0143,-0.00003066,0.00013972,-0.00000656,-0.00052541,-0.00006461,-0.000
 17895,0.00025150,0.00005609,0.00003930,-0.00009080,-0.00004973,-0.0002
 0370,-0.00008006,-0.00000314,0.00013696,0.00001180,0.00003810,0.000016
 39,-0.00000689,-0.00001272,0.00001116,0.00000098,-0.00000046,0.0000019
 1,0.00000395,0.00000956,0.00000386,0.00014552,0.00018045,0.00023995,0.
 00010080,-0.00022641,0.00011281,0.00005185,0.00003867,-0.00026791,0.00
 000995,-0.00007505,-0.00012787,0.00000131,0.00003527,0.00004501,-0.000
 02303,0.00004635,0.00004486,-0.00007223,0.00004325,0.00003090,0.000017
 85,0.00007220,0.00048055,-0.00001939,0.00003439,0.00000410,-0.00000083
 ,0.00002437,0.00000458,0.00053607,-0.00065172,0.00037425,0.00021728,-0
 .00015247,0.00003221,-0.00003133,-0.00001486,-0.00004174,0.00031979,0.
 00074626,-0.01302715,-0.00035336,0.00090464,0.00044141,-0.00240820,0.0
 0062308,0.00042148,-0.00018648,-0.00025692,0.00052620,0.01595871,0.007
 90677,-0.31057593,0.00100518,0.00001013,-0.01006130,0.00068370,0.00035
 196,-0.00773895,-0.01577664,-0.00729815,0.33760425,-0.00002620,-0.0000
 1767,-0.00002200,0.00001157,-0.00001193,0.00000074,-0.00010730,-0.0000
 0707,-0.00002808,0.00005789,0.00001113,0.00003383,0.00000075,-0.000006
 97,-0.00001322,0.00001970,-0.00000518,-0.00001773,-0.00000228,0.000006
 85,0.00000388,-0.00000140,0.00000289,-0.00000515,0.00000678,0.00000427
 ,-0.00000028,0.00000799,0.00000643,0.00000186,0.00007237,0.00003118,0.
 00005951,0.00001757,0.00005795,-0.00003501,-0.00010479,0.00000377,0.00
 009243,0.00001743,-0.00013989,0.00003045,0.00001339,0.00011264,0.00003
 248,-0.00001300,0.00005238,-0.00005219,-0.00007132,0.00000451,-0.00003
 566,0.00007657,0.00012885,0.00007172,0.00000842,-0.00000011,-0.0000020
 5,0.00000575,0.00003232,0.00000541,-0.00010784,-0.00011308,-0.00050328
 ,-0.00000427,-0.00000889,-0.00000003,0.00000990,-0.00000740,-0.0000055
 6,0.00091047,0.00125453,0.00109299,-0.00000390,0.00000921,0.00001296,-
 0.00000923,-0.00010360,-0.00007773,0.00049933,-0.00009741,0.00000189,-
 0.00341609,0.00027922,-0.00115157,-0.24795155,0.08513867,-0.08964274,0
 .00049743,0.00020893,0.00016232,-0.00005523,0.00006142,0.00030810,0.26
 561284,0.00004429,0.00003511,0.00001357,-0.00004563,-0.00001428,-0.000
 00617,0.00017416,0.00001551,0.00006091,-0.00011007,0.00000063,-0.00004
 363,-0.00002505,0.00001354,0.00002030,-0.00004918,0.00001172,0.0000257
 7,0.00000404,-0.00001507,-0.00000753,0.00000154,-0.00001683,0.00001572
 ,-0.00000964,-0.00001224,0.00000068,-0.00000925,-0.00001266,-0.0000014
 8,-0.00010928,-0.00001289,-0.00006881,-0.00001808,-0.00002684,0.000056
 39,0.00018259,0.00021865,-0.00010597,0.00014071,0.00014930,-0.00007203
 ,-0.00005920,-0.00012343,-0.00002371,-0.00003378,-0.00005362,0.0000722
 6,0.00024980,-0.00003866,0.00010300,-0.00014920,-0.00063998,-0.0002991
 0,-0.00001548,-0.00000045,0.00000308,-0.00001766,-0.00011494,-0.000020
 53,0.00197036,-0.00000814,0.00092198,-0.00000847,0.00001141,0.00001098
 ,-0.00001610,0.00001040,-0.00001996,-0.00084588,-0.00576267,-0.0035029
 1,-0.00000360,0.00003941,-0.00001615,-0.00035621,0.00004987,-0.0000535
 6,0.00015044,0.00013168,-0.00022833,0.02683262,-0.01035684,0.01354742,
 0.08456086,-0.08499491,0.03876763,-0.00046253,0.00086280,0.00070536,-0
 .00026866,0.00125975,-0.00015530,-0.09399704,0.09199839,-0.00000983,0.
 00000249,0.00000564,-0.00001429,-0.00000150,0.00002037,-0.00009093,-0.
 00000258,-0.00001559,0.00003421,-0.00000926,0.00000497,0.00000313,-0.0
 0000731,-0.00000104,0.00000703,0.00000105,-0.00000221,0.00000055,-0.00
 000644,-0.00000159,-0.00000421,0.00001109,-0.00000966,0.00000477,0.000
 00699,-0.00000133,-0.00000062,0.00000073,0.00000104,0.00002558,-0.0000
 0338,0.00000188,0.00000314,0.00002935,0.00000455,0.00007394,-0.0000058
 5,-0.00003199,0.00000879,0.00000560,-0.00001691,-0.00000467,-0.0000168
 5,-0.00000322,0.00000112,-0.00000243,0.00002099,0.00007331,-0.00001689
 ,0.00002549,-0.00000296,-0.00020593,-0.00010282,-0.00000028,-0.0000025
 7,-0.00000153,-0.00000242,-0.00002816,-0.00001135,0.00054301,-0.000389
 59,0.00074574,-0.00000839,-0.00000559,0.00000217,-0.00000137,0.0000061
 2,-0.00000373,0.00007811,-0.00225783,-0.00089380,-0.00002111,0.0001147
 1,0.00001900,0.00020223,-0.00025305,0.00039637,-0.00028205,-0.00001063
 ,-0.00015492,0.01263975,-0.00447580,0.00470934,-0.08991839,0.03917517,
 -0.08986502,-0.00032669,0.00065415,0.00019383,0.00024025,0.00066389,0.
 00039357,0.09798710,-0.04064803,0.09300058,0.00001471,0.00000609,0.000
 00354,-0.00003271,-0.00001259,-0.00001761,0.00004578,-0.00003859,0.000
 00205,-0.00002552,0.00001325,-0.00002150,-0.00001733,0.00000444,-0.000
 00689,-0.00001476,-0.00000097,0.00001293,-0.00000122,0.00000115,0.0000
 0025,-0.00000104,-0.00002042,0.00001504,-0.00000374,-0.00000588,-0.000
 00078,0.00000016,-0.00000044,0.00000139,-0.00004154,0.00008566,0.00000
 749,-0.00000960,-0.00000935,0.00002740,0.00005792,0.00003808,-0.000070
 54,0.00006656,-0.00000176,0.00001482,-0.00002253,-0.00001439,-0.000006
 54,-0.00003013,-0.00000932,-0.00000789,0.00000642,0.00001102,-0.000008
 04,-0.00002651,-0.00002132,-0.00000749,-0.00000291,-0.00000707,0.00000
 018,-0.00000531,-0.00001368,0.00000482,-0.00001669,0.00010359,-0.00010
 491,-0.00001199,0.00002418,-0.00001402,-0.00000336,-0.00000129,0.00000
 332,0.00028361,-0.00046739,0.00127220,-0.00001611,-0.00005797,-0.00011
 052,-0.00003148,0.00039035,-0.00026562,-0.00001260,-0.00004883,0.00007
 463,-0.00139384,-0.00029088,0.00543701,-0.05222787,-0.00097506,0.02329
 284,0.00007797,-0.00003787,-0.00062863,0.00058746,0.00115763,0.0002510
 8,0.00390809,-0.00000719,-0.02929950,0.05066574,0.00006608,-0.00000046
 ,0.00000733,-0.00004031,0.00004163,0.00003629,-0.00026934,-0.00004332,
 -0.00012013,0.00014451,0.00003396,0.00001336,-0.00005833,-0.00002627,-
 0.00010628,-0.00004648,0.00000346,0.00007512,0.00000450,0.00001027,0.0
 0000478,-0.00000824,-0.00001176,0.00001028,0.00000140,-0.00000084,0.00
 000049,0.00000068,0.00000136,0.00000335,0.00006730,0.00018644,0.000166
 85,0.00004078,-0.00011635,0.00009214,0.00005545,0.00006006,-0.00013028
 ,0.00003397,-0.00004043,-0.00003127,-0.00001003,0.00001785,0.00001415,
 -0.00002764,0.00002039,0.00000383,-0.00003122,0.00002529,-0.00000808,0
 .00000535,0.00000927,0.00014729,-0.00000511,0.00000130,0.00000004,-0.0
 0000447,0.00000309,0.00000237,-0.00015774,-0.00008037,0.00000064,0.000
 04567,-0.00002054,0.00000717,-0.00000735,-0.00000027,-0.00000327,-0.00
 105187,0.00151849,-0.00108488,-0.00005019,0.00011242,0.00022531,0.0004
 1506,-0.00013745,0.00073747,0.00008069,-0.00004595,0.00013671,0.003371
 81,0.00056045,-0.03359517,-0.00100533,-0.04878215,0.00812833,-0.000483
 95,0.00144720,0.00042123,0.00164055,-0.00603478,-0.00219267,-0.0023912
 0,-0.00114733,0.01187778,-0.00023718,0.05309153,0.00005789,-0.00000303
 ,0.00001384,-0.00001205,0.00004134,0.00000955,-0.00009020,-0.00000428,
 -0.00004227,0.00007427,0.00002633,-0.00001697,-0.00004162,-0.00001429,
 -0.00007350,-0.00003971,-0.00000222,0.00006157,0.00000235,0.00001433,0
 .00000439,-0.00000664,-0.00001843,0.00001613,-0.00000555,-0.00000416,-
 0.00000043,-0.00000030,0.00000276,0.00000164,0.00005023,-0.00019876,0.
 00006627,0.00001154,-0.00013363,0.00009717,0.00004115,0.00002906,-0.00
 009645,-0.00000934,0.00004695,-0.00006194,-0.00000475,-0.00003093,0.00
 000870,0.00000624,-0.00001180,0.00005036,0.00001839,-0.00000462,0.0000
 1309,-0.00000518,-0.00007681,0.00001070,-0.00000477,0.00000255,0.00000
 033,-0.00000254,-0.00001381,-0.00000478,0.00002286,-0.00001045,0.00046
 104,0.00001599,-0.00001958,0.00000297,-0.00001360,0.00000269,-0.000008
 15,-0.00042875,0.00076376,0.00046018,-0.00012372,0.00025358,0.00006180
 ,0.00074804,-0.00051033,0.00039601,-0.00001654,-0.00009371,-0.00004750
 ,0.00068328,-0.00013801,-0.01162815,0.02326488,0.00775423,-0.31746360,
 -0.00023049,-0.00009882,0.00045767,0.00016442,-0.00244725,0.00088563,0
 .00162396,0.00041333,-0.01123110,-0.02580890,-0.00580078,0.34401370,-0
 .00000852,-0.00000007,0.00001367,-0.00001057,-0.00000375,0.00000458,0.
 00000751,-0.00000357,0.00000163,-0.00001338,-0.00002271,-0.00000817,0.
 00002309,0.00000029,0.00001225,0.00001461,-0.00000464,-0.00000208,-0.0
 0000027,0.00000396,0.00000036,0.00000126,0.00001350,-0.00000824,-0.000
 00058,0.00000610,-0.00000041,-0.00000266,0.00000273,-0.00000165,-0.000
 02097,0.00002251,-0.00002232,-0.00002478,-0.00003211,-0.00002946,-0.00
 002792,0.00012844,-0.00002611,-0.00001035,0.00010601,-0.00001500,-0.00
 000304,-0.00005284,-0.00001653,0.00002158,-0.00003585,0.00003033,0.000
 05025,-0.00002420,0.00002006,-0.00003570,-0.00008509,-0.00003127,-0.00
 000490,0.00000051,0.00000084,0.00000151,-0.00001596,-0.00000517,0.0002
 4286,0.00002611,0.00001063,-0.00000361,0.00000425,0.00000124,-0.000007
 44,0.00000076,-0.00000077,0.00134123,0.00066352,-0.00015654,-0.0000000
 5,-0.00002319,-0.00000836,-0.00003729,-0.00008624,-0.00008434,0.000181
 14,-0.00040340,0.00031174,0.00494306,0.00449939,-0.00254516,-0.2009219
 2,-0.12459809,0.04844789,0.00079432,0.00186267,0.00014434,0.00020297,-
 0.00059012,-0.00037629,-0.01987985,-0.01769424,0.00806170,-0.00176562,
 -0.00008783,0.00005916,0.21495404,0.00004208,-0.00000376,0.00002889,0.
 00013152,0.00007045,0.00001658,0.00010800,0.00007321,-0.00000328,0.000
 01704,-0.00001190,-0.00001516,0.00000607,-0.00000176,-0.00000943,-0.00
 000775,-0.00000012,0.00001756,-0.00000118,0.00000698,0.00000029,-0.000
 00210,0.00000449,0.00000124,-0.00000754,-0.00000080,0.00000084,-0.0000
 0701,-0.00000086,-0.00000239,-0.00003339,-0.00012120,-0.00005646,-0.00
 000439,-0.00017998,0.00000017,-0.00017212,0.00019680,0.00011211,-0.000
 18608,0.00019687,-0.00000582,0.00005151,-0.00002892,-0.00001234,0.0000
 8900,-0.00003411,0.00001864,0.00004085,-0.00005589,0.00000613,0.000011
 00,-0.00001145,-0.00000511,0.00000070,0.00000474,-0.00000116,0.0000165
 3,0.00001322,-0.00001117,0.00021730,0.00028388,-0.00027938,0.00000198,
 -0.00001341,0.00000507,0.00005213,-0.00001102,-0.00000978,-0.00199915,
 0.00109344,0.00034866,-0.00005849,0.00001860,0.00000809,0.00010056,-0.
 00004637,0.00004124,0.00133048,-0.00009260,0.00002563,-0.02380991,-0.0
 2038610,0.00823655,-0.12450322,-0.15111276,0.04072985,0.00210246,-0.00
 517972,-0.00289430,0.00010569,0.00129755,-0.00008140,0.00950029,0.0085
 4358,-0.00419947,0.00044400,-0.00065620,0.00028479,0.13642315,0.166145
 11,0.00004083,0.00000591,0.00002153,-0.00000649,0.00002306,0.00001933,
 -0.00000379,0.00000127,-0.00002956,0.00002842,0.00001188,-0.00001817,-
 0.00002056,-0.00000534,-0.00002953,-0.00002114,0.00000102,0.00003091,-
 0.00000096,0.00000083,0.00000025,-0.00000569,-0.00001285,0.00001041,-0
 .00000302,-0.00000276,-0.00000077,-0.00000228,-0.00000059,0.00000165,-
 0.00000101,-0.00010755,0.00003623,0.00000442,-0.00006897,0.00003492,0.
 00001749,0.00002548,-0.00004793,-0.00001883,0.00003755,0.00001284,-0.0
 0000098,-0.00001350,-0.00000799,0.00000498,-0.00000936,0.00000052,-0.0
 0001194,-0.00000080,-0.00000119,0.00000443,0.00002869,0.00000499,-0.00
 000039,-0.00000462,-0.00000132,0.00000030,0.00000047,0.00000067,-0.000
 18173,0.00008373,-0.00007271,0.00000340,0.00001104,-0.00000810,-0.0000
 0067,0.00000117,0.00001482,-0.00025612,0.00055517,0.00002334,-0.000009
 32,-0.00003421,-0.00003087,0.00019225,0.00006288,-0.00005223,0.0001068
 4,0.00029940,0.00019033,-0.01059771,-0.00867248,0.00301868,0.04848892,
 0.04084351,-0.06577912,0.00066540,-0.00278799,-0.00011883,-0.00066156,
 0.00052828,0.00038016,-0.00992933,-0.00946520,0.00280228,0.02595838,0.
 02096054,-0.00641788,-0.05378255,-0.04229567,0.06601234\\0.00000667,0.
 00000017,-0.00000176,-0.00002880,-0.00000421,0.00001713,0.00000807,-0.
 00000093,-0.00001139,-0.00000389,-0.00000178,-0.00000154,0.00000394,-0
 .00000240,-0.00000444,-0.00000268,-0.00000153,0.00000084,0.00000314,-0
 .00000088,-0.00000194,-0.00000134,-0.00000149,-0.00000011,-0.00000136,
 -0.00000220,-0.00000090,0.00000008,-0.00000263,-0.00000206,-0.00000548
 ,-0.00000288,0.00000110,0.00001775,-0.00000109,-0.00000347,0.00000736,
 0.00000002,-0.00000692,-0.00000444,0.00000185,0.00001269,0.00000529,0.
 00000121,0.00000201,-0.00000151,-0.00000261,-0.00001109,0.00000619,0.0
 0000124,0.00000031,-0.00000231,0.00000586,0.00000004,-0.00000068,0.000
 00044,0.00000080,0.00000235,0.00000178,0.00000306,-0.00000270,-0.00000
 312,0.00000372,-0.00000058,0.00000205,0.00000195,0.00000108,0.00000147
 ,0.00000012,0.00000691,0.00000491,-0.00000126,0.00000110,0.00000262,0.
 00000170,-0.00000133,0.00000083,-0.00000114,-0.00000063,0.00000357,0.0
 0000124,-0.00000155,0.00000189,0.00000020,-0.00000275,0.00000080,-0.00
 000007,-0.00000242,-0.00000287,0.00000142,0.00000043,0.00000031,-0.000
 00027,-0.00000317,0.00000017,-0.00000062,-0.00000195,-0.00000078,0.000
 00116,-0.00000079,0.00000020,-0.00000051\\\@
 The archive entry for this job was punched.


 ALL PAPERS THAT YOU SAVE WILL NEVER BE NEEDED UNTIL
 SUCH TIME AS THEY ARE DISPOSED OF, WHEN THEY BECOME
 ESSENTIAL.

           -- JOHN CORCORAN IN
              PAUL DICKSON'S "THE OFFICIAL RULES"
 Job cpu time:       0 days  2 hours 49 minutes  1.1 seconds.
 Elapsed time:       0 days  0 hours  1 minutes 53.6 seconds.
 File lengths (MBytes):  RWF=    764 Int=      0 D2E=      0 Chk=     13 Scr=      1
 Normal termination of Gaussian 16 at Thu Nov 20 22:27:39 2025.
