 Entering Gaussian System, Link 0=g16
 Initial command:
 /public/software/g16/l1.exe "/tmp/Gau-97477.inp" -scrdir="/tmp/"
 Entering Link 1 = /public/software/g16/l1.exe PID=     97478.
  
 Copyright (c) 1988-2021, Gaussian, Inc.  All Rights Reserved.
  
 This is part of the Gaussian(R) 16 program.  It is based on
 the Gaussian(R) 09 system (copyright 2009, Gaussian, Inc.),
 the Gaussian(R) 03 system (copyright 2003, Gaussian, Inc.),
 the Gaussian(R) 98 system (copyright 1998, Gaussian, Inc.),
 the Gaussian(R) 94 system (copyright 1995, Gaussian, Inc.),
 the Gaussian 92(TM) system (copyright 1992, Gaussian, Inc.),
 the Gaussian 90(TM) system (copyright 1990, Gaussian, Inc.),
 the Gaussian 88(TM) system (copyright 1988, Gaussian, Inc.),
 the Gaussian 86(TM) system (copyright 1986, Carnegie Mellon
 University), and the Gaussian 82(TM) system (copyright 1983,
 Carnegie Mellon University). Gaussian is a federally registered
 trademark of Gaussian, Inc.
  
 This software contains proprietary and confidential information,
 including trade secrets, belonging to Gaussian, Inc.
  
 This software is provided under written license and may be
 used, copied, transmitted, or stored only in accord with that
 written license.
  
 The following legend is applicable only to US Government
 contracts under FAR:
  
                    RESTRICTED RIGHTS LEGEND
  
 Use, reproduction and disclosure by the US Government is
 subject to restrictions as set forth in subparagraphs (a)
 and (c) of the Commercial Computer Software - Restricted
 Rights clause in FAR 52.227-19.
  
 Gaussian, Inc.
 340 Quinnipiac St., Bldg. 40, Wallingford CT 06492
  
  
 ---------------------------------------------------------------
 Warning -- This program may not be used in any manner that
 competes with the business of Gaussian, Inc. or will provide
 assistance to any competitor of Gaussian, Inc.  The licensee
 of this program is prohibited from giving any competitor of
 Gaussian, Inc. access to this program.  By using this program,
 the user acknowledges that Gaussian, Inc. is engaged in the
 business of creating and licensing software in the field of
 computational chemistry and represents and warrants to the
 licensee that it is not a competitor of Gaussian, Inc. and that
 it will not use this program in any manner prohibited above.
 ---------------------------------------------------------------
  

 Cite this work as:
 Gaussian 16, Revision C.02,
 M. J. Frisch, G. W. Trucks, H. B. Schlegel, G. E. Scuseria, 
 M. A. Robb, J. R. Cheeseman, G. Scalmani, V. Barone, 
 G. A. Petersson, H. Nakatsuji, X. Li, M. Caricato, A. V. Marenich, 
 J. Bloino, B. G. Janesko, R. Gomperts, B. Mennucci, H. P. Hratchian, 
 J. V. Ortiz, A. F. Izmaylov, J. L. Sonnenberg, D. Williams-Young, 
 F. Ding, F. Lipparini, F. Egidi, J. Goings, B. Peng, A. Petrone, 
 T. Henderson, D. Ranasinghe, V. G. Zakrzewski, J. Gao, N. Rega, 
 G. Zheng, W. Liang, M. Hada, M. Ehara, K. Toyota, R. Fukuda, 
 J. Hasegawa, M. Ishida, T. Nakajima, Y. Honda, O. Kitao, H. Nakai, 
 T. Vreven, K. Throssell, J. A. Montgomery, Jr., J. E. Peralta, 
 F. Ogliaro, M. J. Bearpark, J. J. Heyd, E. N. Brothers, K. N. Kudin, 
 V. N. Staroverov, T. A. Keith, R. Kobayashi, J. Normand, 
 K. Raghavachari, A. P. Rendell, J. C. Burant, S. S. Iyengar, 
 J. Tomasi, M. Cossi, J. M. Millam, M. Klene, C. Adamo, R. Cammi, 
 J. W. Ochterski, R. L. Martin, K. Morokuma, O. Farkas, 
 J. B. Foresman, and D. J. Fox, Gaussian, Inc., Wallingford CT, 2019.
 
 ******************************************
 Gaussian 16:  ES64L-G16RevC.02  7-Dec-2021
                20-Nov-2025 
 ******************************************
 %nprocshared=96
 Will use up to   96 processors via shared memory.
 %mem=10GB
 %chk=IM3.chk
 -------------------------
 # opt freq 6-31g(d) m062x
 -------------------------
 1/18=20,19=15,26=3,38=1/1,3;
 2/9=110,12=2,17=6,18=5,40=1/2;
 3/5=1,6=6,7=1,11=2,25=1,30=1,71=1,74=-55/1,2,3;
 4//1;
 5/5=2,38=5/2;
 6/7=2,8=2,9=2,10=2,28=1/1;
 7//1,2,3,16;
 1/18=20,19=15,26=3/3(2);
 2/9=110/2;
 99//99;
 2/9=110/2;
 3/5=1,6=6,7=1,11=2,25=1,30=1,71=1,74=-55/1,2,3;
 4/5=5,16=3,69=1/1;
 5/5=2,38=5/2;
 7//1,2,3,16;
 1/18=20,19=15,26=3/3(-5);
 2/9=110/2;
 6/7=2,8=2,9=2,10=2,19=2,28=1/1;
 99/9=1/99;
 -------------------
 Title Card Required
 -------------------
 Symbolic Z-matrix:
 Charge =  0 Multiplicity = 2
 C                    -3.077    -1.58996  -1.48952 
 C                    -2.18953  -0.82133  -0.72171 
 C                    -2.36842  -0.73772   0.67614 
 C                    -3.4148   -1.40449   1.32117 
 C                    -4.28276  -2.16045   0.5424 
 C                    -4.11552  -2.25268  -0.85126 
 H                    -2.93444  -1.65185  -2.56878 
 H                    -3.54589  -1.33398   2.40125 
 H                    -5.10685  -2.69035   1.02174 
 H                    -4.81279  -2.85372  -1.43609 
 S                    -1.12785   0.27907   1.35093 
 N                    -1.11047  -0.10725  -1.21658 
 C                    -0.47816   0.50467  -0.27679 
 S                     3.75046  -1.45683   0.27841 
 O                     3.88903  -2.78423  -0.34869 
 O                     4.82183  -0.45425   0.11829 
 C                     2.21599  -0.71566  -0.39378 
 C                     1.98531   0.67906   0.15541 
 H                     1.42784  -1.43521  -0.13421 
 H                     2.38056  -0.73224  -1.48194 
 C                     0.7522    1.34533  -0.47598 
 H                     1.86181   0.63682   1.24991 
 H                     2.86743   1.30156  -0.05088 
 C                     0.56638   2.76968   0.06155 
 H                     0.89429   1.38948  -1.56737 
 H                     0.44696   2.73171   1.15923 
 H                     1.49662   3.32954  -0.12724 
 C                    -0.61459   3.50856  -0.55943 
 C                    -0.73215   4.94268  -0.0568 
 H                    -1.54582   2.96149  -0.33663 
 H                    -0.50708   3.50085  -1.65662 
 H                    -1.58992   5.45772  -0.51049 
 H                    -0.86356   4.9654    1.03539 
 H                     0.17387   5.51921  -0.29598 
 

 GradGradGradGradGradGradGradGradGradGradGradGradGradGradGradGradGradGrad
 Berny optimization.
 Initialization pass.
                           ----------------------------
                           !    Initial Parameters    !
                           ! (Angstroms and Degrees)  !
 --------------------------                            --------------------------
 ! Name  Definition              Value          Derivative Info.                !
 --------------------------------------------------------------------------------
 ! R1    R(1,2)                  1.4028         estimate D2E/DX2                !
 ! R2    R(1,6)                  1.3875         estimate D2E/DX2                !
 ! R3    R(1,7)                  1.0904         estimate D2E/DX2                !
 ! R4    R(2,3)                  1.4117         estimate D2E/DX2                !
 ! R5    R(2,12)                 1.3853         estimate D2E/DX2                !
 ! R6    R(3,4)                  1.3984         estimate D2E/DX2                !
 ! R7    R(3,11)                 1.7402         estimate D2E/DX2                !
 ! R8    R(4,5)                  1.3897         estimate D2E/DX2                !
 ! R9    R(4,8)                  1.0903         estimate D2E/DX2                !
 ! R10   R(5,6)                  1.4067         estimate D2E/DX2                !
 ! R11   R(5,9)                  1.0907         estimate D2E/DX2                !
 ! R12   R(6,10)                 1.0906         estimate D2E/DX2                !
 ! R13   R(11,13)                1.767          estimate D2E/DX2                !
 ! R14   R(12,13)                1.2874         estimate D2E/DX2                !
 ! R15   R(13,21)                1.5034         estimate D2E/DX2                !
 ! R16   R(14,15)                1.4746         estimate D2E/DX2                !
 ! R17   R(14,16)                1.476          estimate D2E/DX2                !
 ! R18   R(14,17)                1.8319         estimate D2E/DX2                !
 ! R19   R(17,18)                1.5166         estimate D2E/DX2                !
 ! R20   R(17,19)                1.0983         estimate D2E/DX2                !
 ! R21   R(17,20)                1.1007         estimate D2E/DX2                !
 ! R22   R(18,21)                1.5373         estimate D2E/DX2                !
 ! R23   R(18,22)                1.1023         estimate D2E/DX2                !
 ! R24   R(18,23)                1.0992         estimate D2E/DX2                !
 ! R25   R(21,24)                1.5337         estimate D2E/DX2                !
 ! R26   R(21,25)                1.1015         estimate D2E/DX2                !
 ! R27   R(24,26)                1.1048         estimate D2E/DX2                !
 ! R28   R(24,27)                1.102          estimate D2E/DX2                !
 ! R29   R(24,28)                1.5252         estimate D2E/DX2                !
 ! R30   R(28,29)                1.5242         estimate D2E/DX2                !
 ! R31   R(28,30)                1.1028         estimate D2E/DX2                !
 ! R32   R(28,31)                1.1025         estimate D2E/DX2                !
 ! R33   R(29,32)                1.0986         estimate D2E/DX2                !
 ! R34   R(29,33)                1.1003         estimate D2E/DX2                !
 ! R35   R(29,34)                1.1002         estimate D2E/DX2                !
 ! A1    A(2,1,6)              118.9106         estimate D2E/DX2                !
 ! A2    A(2,1,7)              119.3496         estimate D2E/DX2                !
 ! A3    A(6,1,7)              121.7398         estimate D2E/DX2                !
 ! A4    A(1,2,3)              119.6193         estimate D2E/DX2                !
 ! A5    A(1,2,12)             125.4272         estimate D2E/DX2                !
 ! A6    A(3,2,12)             114.9535         estimate D2E/DX2                !
 ! A7    A(2,3,4)              121.5546         estimate D2E/DX2                !
 ! A8    A(2,3,11)             109.161          estimate D2E/DX2                !
 ! A9    A(4,3,11)             129.2843         estimate D2E/DX2                !
 ! A10   A(3,4,5)              117.9186         estimate D2E/DX2                !
 ! A11   A(3,4,8)              121.0698         estimate D2E/DX2                !
 ! A12   A(5,4,8)              121.0115         estimate D2E/DX2                !
 ! A13   A(4,5,6)              121.1045         estimate D2E/DX2                !
 ! A14   A(4,5,9)              119.3329         estimate D2E/DX2                !
 ! A15   A(6,5,9)              119.5626         estimate D2E/DX2                !
 ! A16   A(1,6,5)              120.8924         estimate D2E/DX2                !
 ! A17   A(1,6,10)             119.6753         estimate D2E/DX2                !
 ! A18   A(5,6,10)             119.4323         estimate D2E/DX2                !
 ! A19   A(3,11,13)             88.8261         estimate D2E/DX2                !
 ! A20   A(2,12,13)            111.5177         estimate D2E/DX2                !
 ! A21   A(11,13,12)           115.5414         estimate D2E/DX2                !
 ! A22   A(11,13,21)           119.6261         estimate D2E/DX2                !
 ! A23   A(12,13,21)           124.8201         estimate D2E/DX2                !
 ! A24   A(15,14,16)           119.808          estimate D2E/DX2                !
 ! A25   A(15,14,17)           106.6709         estimate D2E/DX2                !
 ! A26   A(16,14,17)           107.0606         estimate D2E/DX2                !
 ! A27   A(14,17,18)           111.5067         estimate D2E/DX2                !
 ! A28   A(14,17,19)           104.4366         estimate D2E/DX2                !
 ! A29   A(14,17,20)           103.3814         estimate D2E/DX2                !
 ! A30   A(18,17,19)           114.0645         estimate D2E/DX2                !
 ! A31   A(18,17,20)           113.2411         estimate D2E/DX2                !
 ! A32   A(19,17,20)           109.334          estimate D2E/DX2                !
 ! A33   A(17,18,21)           111.8303         estimate D2E/DX2                !
 ! A34   A(17,18,22)           109.9608         estimate D2E/DX2                !
 ! A35   A(17,18,23)           109.3171         estimate D2E/DX2                !
 ! A36   A(21,18,22)           109.5462         estimate D2E/DX2                !
 ! A37   A(21,18,23)           108.7358         estimate D2E/DX2                !
 ! A38   A(22,18,23)           107.3363         estimate D2E/DX2                !
 ! A39   A(13,21,18)           111.0817         estimate D2E/DX2                !
 ! A40   A(13,21,24)           111.9452         estimate D2E/DX2                !
 ! A41   A(13,21,25)           105.027          estimate D2E/DX2                !
 ! A42   A(18,21,24)           110.839          estimate D2E/DX2                !
 ! A43   A(18,21,25)           108.715          estimate D2E/DX2                !
 ! A44   A(24,21,25)           109.006          estimate D2E/DX2                !
 ! A45   A(21,24,26)           109.2325         estimate D2E/DX2                !
 ! A46   A(21,24,27)           108.0293         estimate D2E/DX2                !
 ! A47   A(21,24,28)           113.6418         estimate D2E/DX2                !
 ! A48   A(26,24,27)           106.1951         estimate D2E/DX2                !
 ! A49   A(26,24,28)           109.7224         estimate D2E/DX2                !
 ! A50   A(27,24,28)           109.7399         estimate D2E/DX2                !
 ! A51   A(24,28,29)           112.4124         estimate D2E/DX2                !
 ! A52   A(24,28,30)           109.3457         estimate D2E/DX2                !
 ! A53   A(24,28,31)           109.0441         estimate D2E/DX2                !
 ! A54   A(29,28,30)           109.5736         estimate D2E/DX2                !
 ! A55   A(29,28,31)           110.0164         estimate D2E/DX2                !
 ! A56   A(30,28,31)           106.2574         estimate D2E/DX2                !
 ! A57   A(28,29,32)           111.4167         estimate D2E/DX2                !
 ! A58   A(28,29,33)           110.8535         estimate D2E/DX2                !
 ! A59   A(28,29,34)           110.9681         estimate D2E/DX2                !
 ! A60   A(32,29,33)           107.8785         estimate D2E/DX2                !
 ! A61   A(32,29,34)           107.9109         estimate D2E/DX2                !
 ! A62   A(33,29,34)           107.6574         estimate D2E/DX2                !
 ! D1    D(6,1,2,3)              0.0248         estimate D2E/DX2                !
 ! D2    D(6,1,2,12)           179.9823         estimate D2E/DX2                !
 ! D3    D(7,1,2,3)           -179.9715         estimate D2E/DX2                !
 ! D4    D(7,1,2,12)            -0.0141         estimate D2E/DX2                !
 ! D5    D(2,1,6,5)              0.0027         estimate D2E/DX2                !
 ! D6    D(2,1,6,10)           179.9991         estimate D2E/DX2                !
 ! D7    D(7,1,6,5)            179.9989         estimate D2E/DX2                !
 ! D8    D(7,1,6,10)            -0.0047         estimate D2E/DX2                !
 ! D9    D(1,2,3,4)             -0.0509         estimate D2E/DX2                !
 ! D10   D(1,2,3,11)          -179.9008         estimate D2E/DX2                !
 ! D11   D(12,2,3,4)           179.9873         estimate D2E/DX2                !
 ! D12   D(12,2,3,11)            0.1375         estimate D2E/DX2                !
 ! D13   D(1,2,12,13)          179.8604         estimate D2E/DX2                !
 ! D14   D(3,2,12,13)           -0.1804         estimate D2E/DX2                !
 ! D15   D(2,3,4,5)              0.0473         estimate D2E/DX2                !
 ! D16   D(2,3,4,8)           -179.9661         estimate D2E/DX2                !
 ! D17   D(11,3,4,5)           179.8641         estimate D2E/DX2                !
 ! D18   D(11,3,4,8)            -0.1493         estimate D2E/DX2                !
 ! D19   D(2,3,11,13)           -0.0481         estimate D2E/DX2                !
 ! D20   D(4,3,11,13)         -179.8828         estimate D2E/DX2                !
 ! D21   D(3,4,5,6)             -0.019          estimate D2E/DX2                !
 ! D22   D(3,4,5,9)            179.9827         estimate D2E/DX2                !
 ! D23   D(8,4,5,6)            179.9943         estimate D2E/DX2                !
 ! D24   D(8,4,5,9)             -0.004          estimate D2E/DX2                !
 ! D25   D(4,5,6,1)             -0.0056         estimate D2E/DX2                !
 ! D26   D(4,5,6,10)           179.9979         estimate D2E/DX2                !
 ! D27   D(9,5,6,1)            179.9927         estimate D2E/DX2                !
 ! D28   D(9,5,6,10)            -0.0038         estimate D2E/DX2                !
 ! D29   D(3,11,13,12)          -0.0536         estimate D2E/DX2                !
 ! D30   D(3,11,13,21)        -178.8351         estimate D2E/DX2                !
 ! D31   D(2,12,13,11)           0.1402         estimate D2E/DX2                !
 ! D32   D(2,12,13,21)         178.85           estimate D2E/DX2                !
 ! D33   D(11,13,21,18)         67.0271         estimate D2E/DX2                !
 ! D34   D(11,13,21,24)        -57.4703         estimate D2E/DX2                !
 ! D35   D(11,13,21,25)       -175.6153         estimate D2E/DX2                !
 ! D36   D(12,13,21,18)       -111.6337         estimate D2E/DX2                !
 ! D37   D(12,13,21,24)        123.8688         estimate D2E/DX2                !
 ! D38   D(12,13,21,25)          5.7239         estimate D2E/DX2                !
 ! D39   D(15,14,17,18)       -178.4816         estimate D2E/DX2                !
 ! D40   D(15,14,17,19)         57.8757         estimate D2E/DX2                !
 ! D41   D(15,14,17,20)        -56.4959         estimate D2E/DX2                !
 ! D42   D(16,14,17,18)        -49.0844         estimate D2E/DX2                !
 ! D43   D(16,14,17,19)       -172.7272         estimate D2E/DX2                !
 ! D44   D(16,14,17,20)         72.9013         estimate D2E/DX2                !
 ! D45   D(14,17,18,21)        176.1116         estimate D2E/DX2                !
 ! D46   D(14,17,18,22)        -61.9547         estimate D2E/DX2                !
 ! D47   D(14,17,18,23)         55.6422         estimate D2E/DX2                !
 ! D48   D(19,17,18,21)        -65.8901         estimate D2E/DX2                !
 ! D49   D(19,17,18,22)         56.0436         estimate D2E/DX2                !
 ! D50   D(19,17,18,23)        173.6405         estimate D2E/DX2                !
 ! D51   D(20,17,18,21)         60.0113         estimate D2E/DX2                !
 ! D52   D(20,17,18,22)       -178.055          estimate D2E/DX2                !
 ! D53   D(20,17,18,23)        -60.4581         estimate D2E/DX2                !
 ! D54   D(17,18,21,13)         56.7            estimate D2E/DX2                !
 ! D55   D(17,18,21,24)       -178.1792         estimate D2E/DX2                !
 ! D56   D(17,18,21,25)        -58.3863         estimate D2E/DX2                !
 ! D57   D(22,18,21,13)        -65.4715         estimate D2E/DX2                !
 ! D58   D(22,18,21,24)         59.6493         estimate D2E/DX2                !
 ! D59   D(22,18,21,25)        179.4422         estimate D2E/DX2                !
 ! D60   D(23,18,21,13)        177.5078         estimate D2E/DX2                !
 ! D61   D(23,18,21,24)        -57.3714         estimate D2E/DX2                !
 ! D62   D(23,18,21,25)         62.4215         estimate D2E/DX2                !
 ! D63   D(13,21,24,26)         65.5539         estimate D2E/DX2                !
 ! D64   D(13,21,24,27)       -179.346          estimate D2E/DX2                !
 ! D65   D(13,21,24,28)        -57.3258         estimate D2E/DX2                !
 ! D66   D(18,21,24,26)        -59.0785         estimate D2E/DX2                !
 ! D67   D(18,21,24,27)         56.0216         estimate D2E/DX2                !
 ! D68   D(18,21,24,28)        178.0417         estimate D2E/DX2                !
 ! D69   D(25,21,24,26)       -178.6972         estimate D2E/DX2                !
 ! D70   D(25,21,24,27)        -63.5971         estimate D2E/DX2                !
 ! D71   D(25,21,24,28)         58.423          estimate D2E/DX2                !
 ! D72   D(21,24,28,29)       -177.1767         estimate D2E/DX2                !
 ! D73   D(21,24,28,30)         60.8938         estimate D2E/DX2                !
 ! D74   D(21,24,28,31)        -54.8966         estimate D2E/DX2                !
 ! D75   D(26,24,28,29)         60.213          estimate D2E/DX2                !
 ! D76   D(26,24,28,30)        -61.7166         estimate D2E/DX2                !
 ! D77   D(26,24,28,31)       -177.5069         estimate D2E/DX2                !
 ! D78   D(27,24,28,29)        -56.1099         estimate D2E/DX2                !
 ! D79   D(27,24,28,30)       -178.0394         estimate D2E/DX2                !
 ! D80   D(27,24,28,31)         66.1702         estimate D2E/DX2                !
 ! D81   D(24,28,29,32)       -179.7355         estimate D2E/DX2                !
 ! D82   D(24,28,29,33)        -59.5831         estimate D2E/DX2                !
 ! D83   D(24,28,29,34)         59.9936         estimate D2E/DX2                !
 ! D84   D(30,28,29,32)        -57.9355         estimate D2E/DX2                !
 ! D85   D(30,28,29,33)         62.2169         estimate D2E/DX2                !
 ! D86   D(30,28,29,34)       -178.2064         estimate D2E/DX2                !
 ! D87   D(31,28,29,32)         58.5362         estimate D2E/DX2                !
 ! D88   D(31,28,29,33)        178.6886         estimate D2E/DX2                !
 ! D89   D(31,28,29,34)        -61.7347         estimate D2E/DX2                !
 --------------------------------------------------------------------------------
 Trust Radius=3.00D-01 FncErr=1.00D-07 GrdErr=1.00D-06 EigMax=2.50D+02 EigMin=1.00D-04
 Number of steps in this run=    196 maximum allowed number of steps=    204.
 GradGradGradGradGradGradGradGradGradGradGradGradGradGradGradGradGradGrad

                          Input orientation:                          
 ---------------------------------------------------------------------
 Center     Atomic      Atomic             Coordinates (Angstroms)
 Number     Number       Type             X           Y           Z
 ---------------------------------------------------------------------
      1          6           0       -3.076995   -1.589961   -1.489523
      2          6           0       -2.189533   -0.821325   -0.721712
      3          6           0       -2.368422   -0.737724    0.676141
      4          6           0       -3.414796   -1.404486    1.321174
      5          6           0       -4.282764   -2.160451    0.542401
      6          6           0       -4.115524   -2.252677   -0.851260
      7          1           0       -2.934444   -1.651848   -2.568784
      8          1           0       -3.545890   -1.333984    2.401247
      9          1           0       -5.106850   -2.690354    1.021743
     10          1           0       -4.812787   -2.853724   -1.436094
     11         16           0       -1.127849    0.279073    1.350930
     12          7           0       -1.110469   -0.107249   -1.216581
     13          6           0       -0.478162    0.504668   -0.276786
     14         16           0        3.750457   -1.456825    0.278413
     15          8           0        3.889031   -2.784227   -0.348688
     16          8           0        4.821826   -0.454245    0.118290
     17          6           0        2.215987   -0.715660   -0.393776
     18          6           0        1.985312    0.679058    0.155413
     19          1           0        1.427841   -1.435211   -0.134211
     20          1           0        2.380560   -0.732237   -1.481935
     21          6           0        0.752196    1.345327   -0.475984
     22          1           0        1.861805    0.636823    1.249909
     23          1           0        2.867431    1.301562   -0.050879
     24          6           0        0.566384    2.769678    0.061548
     25          1           0        0.894288    1.389482   -1.567365
     26          1           0        0.446958    2.731714    1.159231
     27          1           0        1.496620    3.329535   -0.127237
     28          6           0       -0.614593    3.508557   -0.559431
     29          6           0       -0.732146    4.942683   -0.056795
     30          1           0       -1.545816    2.961486   -0.336628
     31          1           0       -0.507080    3.500851   -1.656619
     32          1           0       -1.589919    5.457722   -0.510485
     33          1           0       -0.863558    4.965403    1.035389
     34          1           0        0.173872    5.519211   -0.295975
 ---------------------------------------------------------------------
                    Distance matrix (angstroms):
                    1          2          3          4          5
     1  C    0.000000
     2  C    1.402827   0.000000
     3  C    2.432793   1.411731   0.000000
     4  C    2.836993   2.452495   1.398405   0.000000
     5  C    2.430649   2.787984   2.388879   1.389726   0.000000
     6  C    1.387485   2.403121   2.771354   2.435142   1.406686
     7  H    1.090392   2.157854   3.418412   3.927302   3.428719
     8  H    3.927274   3.443167   2.172084   1.090282   2.163640
     9  H    3.411398   3.878614   3.381005   2.146197   1.090726
    10  H    2.147772   3.394473   3.861854   3.414264   2.162405
    11  S    3.919264   2.575635   1.740183   2.839962   4.069212
    12  N    2.477934   1.385344   2.358462   3.665099   4.168106
    13  C    3.551357   2.210205   2.454525   3.849956   4.716876
    14  S    7.053894   6.057028   6.173814   7.240921   8.068297
    15  O    7.159141   6.398521   6.662895   7.618268   8.243869
    16  O    8.140411   7.071033   7.217425   8.378056   9.272786
    17  C    5.475465   4.418972   4.707655   5.926319   6.722917
    18  C    5.786295   4.522149   4.607974   5.904348   6.892122
    19  H    4.706842   3.715832   3.943954   5.056701   5.796101
    20  H    5.524550   4.633749   5.216335   6.472673   7.108982
    21  C    4.930099   3.661766   3.924889   5.306135   6.219197
    22  H    6.070815   4.735697   4.484798   5.658139   6.788302
    23  H    6.765117   5.525355   5.665810   6.976504   7.966354
    24  C    5.889523   4.593896   4.614399   5.904244   6.931928
    25  H    4.965302   3.887512   4.494842   5.892208   6.622311
    26  H    6.173412   4.807610   4.494078   5.661053   6.832571
    27  H    6.853847   5.583078   5.668030   6.973583   7.999353
    28  C    5.737890   4.610276   4.757463   5.959514   6.841576
    29  C    7.087063   5.982464   5.956645   7.027230   7.963695
    30  H    4.938557   3.856465   3.922568   5.030219   5.873484
    31  H    5.705151   4.731374   5.183810   6.433070   7.151351
    32  H    7.269095   6.311148   6.355918   7.333147   8.148407
    33  H    7.365275   6.191271   5.909258   6.867749   7.919078
    34  H    7.907782   6.780069   6.823306   7.964376   8.918615
                    6          7          8          9         10
     6  C    0.000000
     7  H    2.169293   0.000000
     8  H    3.427431   5.017580   0.000000
     9  H    2.163892   4.323162   2.485833   0.000000
    10  H    1.090626   2.501133   4.317386   2.480751   0.000000
    11  S    4.492839   4.728255   3.090638   4.975772   5.582176
    12  N    3.710347   2.746111   4.530434   5.258668   4.615026
    13  C    4.600367   3.992134   4.468048   5.772270   5.604620
    14  S    7.986438   7.268595   7.599881   8.973629   8.844208
    15  O    8.037912   7.264360   8.058747   9.100152   8.769773
    16  O    9.167912   8.295441   8.718056  10.217388  10.049845
    17  C    6.531443   5.668690   6.433794   7.715378   7.420337
    18  C    6.843147   6.087559   6.300024   7.899508   7.824806
    19  H    5.649009   5.000361   5.583618   6.753799   6.530889
    20  H    6.701388   5.502381   7.110838   8.134122   7.499803
    21  C    6.064748   5.191742   5.825007   7.270373   7.037249
    22  H    6.963662   6.544038   5.869653   7.725563   7.996794
    23  H    7.876223   6.980274   7.354571   8.981930   8.841435
    24  C    6.926581   6.222888   6.262989   7.932182   7.924712
    25  H    6.235090   4.991164   6.548460   7.704687   7.112857
    26  H    7.049998   6.674398   5.832267   7.762893   8.099244
    27  H    7.948677   7.099976   7.319054   9.009164   8.930533
    28  C    6.747851   6.004081   6.388139   7.817095   7.672809
    29  C    7.990721   7.392432   7.304497   8.863664   8.907191
    30  H    5.835730   5.309770   5.472414   6.816849   6.760073
    31  H    6.839046   5.768401   7.005446   8.164712   7.679086
    32  H    8.120656   7.522654   7.644035   9.005980   8.962353
    33  H    8.138514   7.814515   6.981601   8.753075   9.101834
    34  H    8.894352   8.139495   8.250934   9.849841   9.811864
                   11         12         13         14         15
    11  S    0.000000
    12  N    2.596471   0.000000
    13  C    1.767044   1.287427   0.000000
    14  S    5.287864   5.261650   4.694350   0.000000
    15  O    6.118954   5.737112   5.467575   1.474603   0.000000
    16  O    6.120114   6.090518   5.400507   1.476021   2.552840
    17  C    3.900607   3.480299   2.959954   1.831874   2.660842
    18  C    3.358723   3.476278   2.507172   2.773601   3.984044
    19  H    3.417011   3.062356   2.723289   2.359083   2.814836
    20  H    4.621342   3.556446   3.339852   2.345308   2.787543
    21  C    2.830032   2.475476   1.503386   4.172618   5.187403
    22  H    3.012677   3.933399   2.797089   2.982310   4.285877
    23  H    4.355779   4.378047   3.446602   2.914939   4.222088
    24  C    3.276590   3.566814   2.517105   5.296100   6.484916
    25  H    3.720012   2.526322   2.081372   4.434643   5.279537
    26  H    2.920995   4.016189   2.806729   5.406737   6.674376
    27  H    4.286973   4.449165   3.449928   5.305994   6.568924
    28  C    3.787146   3.708341   3.020240   6.664133   7.741200
    29  C    4.887487   5.195194   4.450717   7.820473   9.008086
    30  H    3.196543   3.221953   2.679444   6.924612   7.908914
    31  H    4.450905   3.684576   3.298771   6.815389   7.780661
    32  H    5.522389   5.630040   5.081669   8.772282   9.898222
    33  H    4.704371   5.555550   4.665671   7.944001   9.195626
    34  H    5.644982   5.844151   5.056793   7.860468   9.096827
                   16         17         18         19         20
    16  O    0.000000
    17  C    2.668510   0.000000
    18  C    3.054761   1.516594   0.000000
    19  H    3.541918   1.098318   2.205627   0.000000
    20  H    2.932197   1.100658   2.197472   1.793936   0.000000
    21  C    4.489266   2.529251   1.537255   2.881787   2.824850
    22  H    3.351524   2.157859   1.102252   2.529316   3.099420
    23  H    2.632705   2.147357   1.099182   3.093427   2.534029
    24  C    5.339072   3.882794   2.528410   4.296687   4.235208
    25  H    4.654709   2.748786   2.159398   3.212087   2.591909
    26  H    5.511203   4.174408   2.754556   4.471956   4.765871
    27  H    5.043240   4.117297   2.709933   4.765247   4.372019
    28  C    6.761491   5.087596   3.908526   5.365929   5.273167
    29  C    7.746231   6.389201   5.060445   6.734172   6.627570
    30  H    7.240237   5.260782   4.233255   5.311737   5.511057
    31  H    6.869521   5.175793   4.178276   5.516009   5.127184
    32  H    8.743980   7.253219   6.005108   7.533989   7.417817
    33  H    7.908049   6.618201   5.221415   6.898285   7.023128
    34  H    7.580057   6.561510   5.187692   7.068422   6.734729
                   21         22         23         24         25
    21  C    0.000000
    22  H    2.170695   0.000000
    23  H    2.157973   1.773474   0.000000
    24  C    1.533702   2.763944   2.731817   0.000000
    25  H    1.101477   3.072396   2.490131   2.160051   0.000000
    26  H    2.165449   2.529542   3.060783   1.104813   3.071810
    27  H    2.147760   3.046406   2.449005   1.102007   2.490096
    28  C    2.560203   4.201561   4.153787   1.525209   2.789826
    29  C    3.914072   5.193889   5.120034   2.534193   4.189552
    30  H    2.812872   4.419620   4.723743   2.157944   3.152779
    31  H    2.761514   4.718281   4.336196   2.153842   2.535681
    32  H    4.732704   6.185018   6.111700   3.493200   4.882505
    33  H    4.242624   5.119592   5.340785   2.795409   4.759366
    34  H    4.217602   5.392271   5.010379   2.800325   4.380650
                   26         27         28         29         30
    26  H    0.000000
    27  H    1.764704   0.000000
    28  C    2.164295   2.162420   0.000000
    29  C    2.785209   2.752200   1.524198   0.000000
    30  H    2.502306   3.071762   1.102771   2.159978   0.000000
    31  H    3.070956   2.526494   1.102470   2.165403   1.764161
    32  H    3.790506   3.768658   2.180115   1.098578   2.502672
    33  H    2.592712   3.098097   2.174358   1.100296   2.522616
    34  H    3.156317   2.563750   2.175733   1.100209   3.082359
                   31         32         33         34
    31  H    0.000000
    32  H    2.513067   0.000000
    33  H    3.085271   1.777556   0.000000
    34  H    2.527612   1.777851   1.776371   0.000000
 Stoichiometry    C13H16NO2S2(2)
 Framework group  C1[X(C13H16NO2S2)]
 Deg. of freedom    96
 Full point group                 C1      NOp   1
 Largest Abelian subgroup         C1      NOp   1
 Largest concise Abelian subgroup C1      NOp   1
                         Standard orientation:                         
 ---------------------------------------------------------------------
 Center     Atomic      Atomic             Coordinates (Angstroms)
 Number     Number       Type             X           Y           Z
 ---------------------------------------------------------------------
      1          6           0       -3.076995   -1.589961   -1.489523
      2          6           0       -2.189533   -0.821325   -0.721712
      3          6           0       -2.368422   -0.737724    0.676141
      4          6           0       -3.414796   -1.404486    1.321174
      5          6           0       -4.282764   -2.160450    0.542401
      6          6           0       -4.115524   -2.252677   -0.851260
      7          1           0       -2.934444   -1.651848   -2.568784
      8          1           0       -3.545890   -1.333984    2.401247
      9          1           0       -5.106850   -2.690353    1.021743
     10          1           0       -4.812787   -2.853723   -1.436094
     11         16           0       -1.127849    0.279073    1.350930
     12          7           0       -1.110469   -0.107249   -1.216581
     13          6           0       -0.478162    0.504668   -0.276786
     14         16           0        3.750457   -1.456825    0.278413
     15          8           0        3.889031   -2.784227   -0.348688
     16          8           0        4.821826   -0.454246    0.118290
     17          6           0        2.215987   -0.715660   -0.393776
     18          6           0        1.985312    0.679058    0.155413
     19          1           0        1.427841   -1.435211   -0.134211
     20          1           0        2.380560   -0.732237   -1.481935
     21          6           0        0.752196    1.345327   -0.475984
     22          1           0        1.861805    0.636823    1.249909
     23          1           0        2.867431    1.301562   -0.050879
     24          6           0        0.566384    2.769678    0.061548
     25          1           0        0.894288    1.389482   -1.567365
     26          1           0        0.446958    2.731714    1.159231
     27          1           0        1.496620    3.329535   -0.127237
     28          6           0       -0.614593    3.508557   -0.559431
     29          6           0       -0.732145    4.942683   -0.056795
     30          1           0       -1.545816    2.961486   -0.336628
     31          1           0       -0.507080    3.500851   -1.656619
     32          1           0       -1.589918    5.457722   -0.510485
     33          1           0       -0.863557    4.965403    1.035389
     34          1           0        0.173873    5.519211   -0.295975
 ---------------------------------------------------------------------
 Rotational constants (GHZ):           0.3902214           0.2153933           0.1551855
 Standard basis: 6-31G(d) (6D, 7F)
 There are   310 symmetry adapted cartesian basis functions of A   symmetry.
 There are   310 symmetry adapted basis functions of A   symmetry.
   310 basis functions,   616 primitive gaussians,   310 cartesian basis functions
    75 alpha electrons       74 beta electrons
       nuclear repulsion energy      1551.8522590219 Hartrees.
 NAtoms=   34 NActive=   34 NUniq=   34 SFac= 1.00D+00 NAtFMM=   60 NAOKFM=F Big=F
 Integral buffers will be    131072 words long.
 Raffenetti 2 integral format.
 Two-electron integral symmetry is turned on.
 One-electron integrals computed using PRISM.
 NBasis=   310 RedAO= T EigKep=  4.61D-04  NBF=   310
 NBsUse=   310 1.00D-06 EigRej= -1.00D+00 NBFU=   310
 ExpMin= 1.17D-01 ExpMax= 2.19D+04 ExpMxC= 3.30D+03 IAcc=3 IRadAn=         5 AccDes= 0.00D+00
 Harris functional with IExCor= 1009 and IRadAn=       5 diagonalized for initial guess.
 HarFok:  IExCor= 1009 AccDes= 0.00D+00 IRadAn=         5 IDoV= 1 UseB2=F ITyADJ=14
 ICtDFT=  3500011 ScaDFX=  1.000000  1.000000  1.000000  1.000000
 FoFCou: FMM=F IPFlag=           0 FMFlag=      100000 FMFlg1=           0
         NFxFlg=           0 DoJE=T BraDBF=F KetDBF=T FulRan=T
         wScrn=  0.000000 ICntrl=       500 IOpCl=  0 I1Cent=   200000004 NGrid=           0
         NMat0=    1 NMatS0=      1 NMatT0=    0 NMatD0=    1 NMtDS0=    0 NMtDT0=    0
 Petite list used in FoFCou.
 Initial guess <Sx>= 0.0000 <Sy>= 0.0000 <Sz>= 0.5000 <S**2>= 0.7500 S= 0.5000
 Requested convergence on RMS density matrix=1.00D-08 within 128 cycles.
 Requested convergence on MAX density matrix=1.00D-06.
 Requested convergence on             energy=1.00D-06.
 No special actions if energy rises.
 Integral accuracy reduced to 1.0D-05 until final iterations.
 Initial convergence to 1.0D-05 achieved.  Increase integral accuracy.
 SCF Done:  E(UM062X) =  -1506.15367383     A.U. after   19 cycles
            NFock= 19  Conv=0.66D-08     -V/T= 2.0057
 <Sx>= 0.0000 <Sy>= 0.0000 <Sz>= 0.5000 <S**2>= 0.7569 S= 0.5035
 <L.S>=  0.00000000000    
 Annihilation of the first spin contaminant:
 S**2 before annihilation     0.7569,   after     0.7500

 **********************************************************************

            Population analysis using the SCF Density.

 **********************************************************************

 Orbital symmetries:
 Alpha Orbitals:
       Occupied  (A) (A) (A) (A) (A) (A) (A) (A) (A) (A) (A) (A)
                 (A) (A) (A) (A) (A) (A) (A) (A) (A) (A) (A) (A)
                 (A) (A) (A) (A) (A) (A) (A) (A) (A) (A) (A) (A)
                 (A) (A) (A) (A) (A) (A) (A) (A) (A) (A) (A) (A)
                 (A) (A) (A) (A) (A) (A) (A) (A) (A) (A) (A) (A)
                 (A) (A) (A) (A) (A) (A) (A) (A) (A) (A) (A) (A)
                 (A) (A) (A)
       Virtual   (A) (A) (A) (A) (A) (A) (A) (A) (A) (A) (A) (A)
                 (A) (A) (A) (A) (A) (A) (A) (A) (A) (A) (A) (A)
                 (A) (A) (A) (A) (A) (A) (A) (A) (A) (A) (A) (A)
                 (A) (A) (A) (A) (A) (A) (A) (A) (A) (A) (A) (A)
                 (A) (A) (A) (A) (A) (A) (A) (A) (A) (A) (A) (A)
                 (A) (A) (A) (A) (A) (A) (A) (A) (A) (A) (A) (A)
                 (A) (A) (A) (A) (A) (A) (A) (A) (A) (A) (A) (A)
                 (A) (A) (A) (A) (A) (A) (A) (A) (A) (A) (A) (A)
                 (A) (A) (A) (A) (A) (A) (A) (A) (A) (A) (A) (A)
                 (A) (A) (A) (A) (A) (A) (A) (A) (A) (A) (A) (A)
                 (A) (A) (A) (A) (A) (A) (A) (A) (A) (A) (A) (A)
                 (A) (A) (A) (A) (A) (A) (A) (A) (A) (A) (A) (A)
                 (A) (A) (A) (A) (A) (A) (A) (A) (A) (A) (A) (A)
                 (A) (A) (A) (A) (A) (A) (A) (A) (A) (A) (A) (A)
                 (A) (A) (A) (A) (A) (A) (A) (A) (A) (A) (A) (A)
                 (A) (A) (A) (A) (A) (A) (A) (A) (A) (A) (A) (A)
                 (A) (A) (A) (A) (A) (A) (A) (A) (A) (A) (A) (A)
                 (A) (A) (A) (A) (A) (A) (A) (A) (A) (A) (A) (A)
                 (A) (A) (A) (A) (A) (A) (A) (A) (A) (A) (A) (A)
                 (A) (A) (A) (A) (A) (A) (A)
 Beta  Orbitals:
       Occupied  (A) (A) (A) (A) (A) (A) (A) (A) (A) (A) (A) (A)
                 (A) (A) (A) (A) (A) (A) (A) (A) (A) (A) (A) (A)
                 (A) (A) (A) (A) (A) (A) (A) (A) (A) (A) (A) (A)
                 (A) (A) (A) (A) (A) (A) (A) (A) (A) (A) (A) (A)
                 (A) (A) (A) (A) (A) (A) (A) (A) (A) (A) (A) (A)
                 (A) (A) (A) (A) (A) (A) (A) (A) (A) (A) (A) (A)
                 (A) (A)
       Virtual   (A) (A) (A) (A) (A) (A) (A) (A) (A) (A) (A) (A)
                 (A) (A) (A) (A) (A) (A) (A) (A) (A) (A) (A) (A)
                 (A) (A) (A) (A) (A) (A) (A) (A) (A) (A) (A) (A)
                 (A) (A) (A) (A) (A) (A) (A) (A) (A) (A) (A) (A)
                 (A) (A) (A) (A) (A) (A) (A) (A) (A) (A) (A) (A)
                 (A) (A) (A) (A) (A) (A) (A) (A) (A) (A) (A) (A)
                 (A) (A) (A) (A) (A) (A) (A) (A) (A) (A) (A) (A)
                 (A) (A) (A) (A) (A) (A) (A) (A) (A) (A) (A) (A)
                 (A) (A) (A) (A) (A) (A) (A) (A) (A) (A) (A) (A)
                 (A) (A) (A) (A) (A) (A) (A) (A) (A) (A) (A) (A)
                 (A) (A) (A) (A) (A) (A) (A) (A) (A) (A) (A) (A)
                 (A) (A) (A) (A) (A) (A) (A) (A) (A) (A) (A) (A)
                 (A) (A) (A) (A) (A) (A) (A) (A) (A) (A) (A) (A)
                 (A) (A) (A) (A) (A) (A) (A) (A) (A) (A) (A) (A)
                 (A) (A) (A) (A) (A) (A) (A) (A) (A) (A) (A) (A)
                 (A) (A) (A) (A) (A) (A) (A) (A) (A) (A) (A) (A)
                 (A) (A) (A) (A) (A) (A) (A) (A) (A) (A) (A) (A)
                 (A) (A) (A) (A) (A) (A) (A) (A) (A) (A) (A) (A)
                 (A) (A) (A) (A) (A) (A) (A) (A) (A) (A) (A) (A)
                 (A) (A) (A) (A) (A) (A) (A) (A)
 The electronic state is 2-A.
 Alpha  occ. eigenvalues --  -90.10704 -89.96315 -19.66207 -19.66143 -14.77562
 Alpha  occ. eigenvalues --  -10.63500 -10.60984 -10.59819 -10.59511 -10.58641
 Alpha  occ. eigenvalues --  -10.58281 -10.57371 -10.56699 -10.56580 -10.56395
 Alpha  occ. eigenvalues --  -10.56372 -10.55234 -10.54231  -8.43026  -8.30930
 Alpha  occ. eigenvalues --   -6.35209  -6.35013  -6.34904  -6.22925  -6.22721
 Alpha  occ. eigenvalues --   -6.22451  -1.23003  -1.13461  -1.08988  -0.96997
 Alpha  occ. eigenvalues --   -0.95117  -0.90774  -0.90185  -0.86308  -0.84344
 Alpha  occ. eigenvalues --   -0.82102  -0.77614  -0.74002  -0.70337  -0.68942
 Alpha  occ. eigenvalues --   -0.68592  -0.67622  -0.64141  -0.59646  -0.57991
 Alpha  occ. eigenvalues --   -0.57115  -0.56981  -0.55609  -0.54912  -0.53857
 Alpha  occ. eigenvalues --   -0.52830  -0.51751  -0.51481  -0.51025  -0.48700
 Alpha  occ. eigenvalues --   -0.48369  -0.47738  -0.47209  -0.44901  -0.44103
 Alpha  occ. eigenvalues --   -0.43655  -0.42913  -0.42495  -0.41864  -0.40952
 Alpha  occ. eigenvalues --   -0.40697  -0.40286  -0.39558  -0.39488  -0.38373
 Alpha  occ. eigenvalues --   -0.37023  -0.34798  -0.30543  -0.29617  -0.29279
 Alpha virt. eigenvalues --   -0.00934   0.02062   0.04049   0.06782   0.09584
 Alpha virt. eigenvalues --    0.10571   0.11525   0.12331   0.13041   0.13494
 Alpha virt. eigenvalues --    0.13643   0.14144   0.16859   0.16967   0.17570
 Alpha virt. eigenvalues --    0.18334   0.19678   0.20142   0.20796   0.21059
 Alpha virt. eigenvalues --    0.21465   0.21971   0.22213   0.22696   0.23587
 Alpha virt. eigenvalues --    0.24165   0.24562   0.25769   0.27497   0.29071
 Alpha virt. eigenvalues --    0.30218   0.31103   0.32100   0.32391   0.34205
 Alpha virt. eigenvalues --    0.35258   0.37076   0.38601   0.40625   0.40720
 Alpha virt. eigenvalues --    0.41781   0.42652   0.43998   0.46497   0.48052
 Alpha virt. eigenvalues --    0.52148   0.52496   0.54953   0.55424   0.56242
 Alpha virt. eigenvalues --    0.57163   0.57660   0.58570   0.59190   0.59896
 Alpha virt. eigenvalues --    0.61818   0.62200   0.62984   0.63455   0.63900
 Alpha virt. eigenvalues --    0.64529   0.64736   0.65372   0.66224   0.68933
 Alpha virt. eigenvalues --    0.69296   0.70912   0.71413   0.72242   0.73364
 Alpha virt. eigenvalues --    0.74532   0.75505   0.76076   0.79134   0.80464
 Alpha virt. eigenvalues --    0.81499   0.82187   0.84544   0.85621   0.86206
 Alpha virt. eigenvalues --    0.86364   0.87066   0.87688   0.88491   0.88721
 Alpha virt. eigenvalues --    0.89518   0.89746   0.90215   0.91868   0.92155
 Alpha virt. eigenvalues --    0.92643   0.95175   0.95398   0.95859   0.96196
 Alpha virt. eigenvalues --    0.97038   0.97465   0.97595   0.97935   0.99199
 Alpha virt. eigenvalues --    1.00438   1.00507   1.01308   1.02033   1.02966
 Alpha virt. eigenvalues --    1.04162   1.04315   1.04939   1.06300   1.07482
 Alpha virt. eigenvalues --    1.08211   1.09856   1.10663   1.11255   1.12297
 Alpha virt. eigenvalues --    1.13599   1.14169   1.17170   1.19730   1.20640
 Alpha virt. eigenvalues --    1.22169   1.23477   1.25360   1.29307   1.31379
 Alpha virt. eigenvalues --    1.33091   1.34891   1.38625   1.40030   1.42962
 Alpha virt. eigenvalues --    1.43429   1.44958   1.46551   1.48181   1.51751
 Alpha virt. eigenvalues --    1.52382   1.53598   1.54438   1.55270   1.57065
 Alpha virt. eigenvalues --    1.58002   1.60151   1.62422   1.64854   1.66947
 Alpha virt. eigenvalues --    1.73033   1.75165   1.76484   1.81219   1.82929
 Alpha virt. eigenvalues --    1.83727   1.84501   1.84894   1.86405   1.86645
 Alpha virt. eigenvalues --    1.87551   1.88227   1.89950   1.91542   1.93538
 Alpha virt. eigenvalues --    1.94574   1.95450   1.97051   1.97246   1.98607
 Alpha virt. eigenvalues --    1.99853   2.00174   2.01516   2.02007   2.03050
 Alpha virt. eigenvalues --    2.05089   2.08008   2.08863   2.10372   2.11679
 Alpha virt. eigenvalues --    2.14166   2.14743   2.15937   2.16999   2.18958
 Alpha virt. eigenvalues --    2.20351   2.24467   2.25809   2.26930   2.27806
 Alpha virt. eigenvalues --    2.29713   2.30803   2.31611   2.33940   2.36557
 Alpha virt. eigenvalues --    2.37734   2.38571   2.42786   2.43344   2.47372
 Alpha virt. eigenvalues --    2.51525   2.51675   2.56591   2.58773   2.60326
 Alpha virt. eigenvalues --    2.61708   2.64017   2.66597   2.67816   2.68505
 Alpha virt. eigenvalues --    2.72846   2.74145   2.74663   2.75391   2.82045
 Alpha virt. eigenvalues --    2.83707   2.84913   2.89440   2.93195   3.03071
 Alpha virt. eigenvalues --    3.18950   3.39026   3.72534   3.77928   3.97867
 Alpha virt. eigenvalues --    3.99828   4.09773   4.10451   4.14182   4.16594
 Alpha virt. eigenvalues --    4.20968   4.23173   4.31590   4.33990   4.37741
 Alpha virt. eigenvalues --    4.38633   4.44370   4.50627   4.65337   4.71154
  Beta  occ. eigenvalues --  -90.10397 -89.96315 -19.65595 -19.65532 -14.77562
  Beta  occ. eigenvalues --  -10.63500 -10.60813 -10.59819 -10.59511 -10.58634
  Beta  occ. eigenvalues --  -10.58289 -10.57371 -10.56699 -10.56580 -10.56395
  Beta  occ. eigenvalues --  -10.56370 -10.55234 -10.54231  -8.42838  -8.30930
  Beta  occ. eigenvalues --   -6.34948  -6.34855  -6.34363  -6.22925  -6.22721
  Beta  occ. eigenvalues --   -6.22451  -1.21326  -1.11429  -1.08987  -0.96961
  Beta  occ. eigenvalues --   -0.94998  -0.90541  -0.90040  -0.86074  -0.84272
  Beta  occ. eigenvalues --   -0.81999  -0.77086  -0.73868  -0.69361  -0.68888
  Beta  occ. eigenvalues --   -0.68044  -0.66960  -0.64114  -0.59395  -0.57059
  Beta  occ. eigenvalues --   -0.56825  -0.56242  -0.55393  -0.53772  -0.53015
  Beta  occ. eigenvalues --   -0.51926  -0.51526  -0.51118  -0.50215  -0.48574
  Beta  occ. eigenvalues --   -0.48059  -0.47330  -0.47157  -0.44695  -0.44039
  Beta  occ. eigenvalues --   -0.43613  -0.42453  -0.41842  -0.40804  -0.40538
  Beta  occ. eigenvalues --   -0.40150  -0.39529  -0.38572  -0.37589  -0.37022
  Beta  occ. eigenvalues --   -0.36536  -0.34789  -0.29616  -0.29280
  Beta virt. eigenvalues --   -0.10403  -0.00929   0.02061   0.04049   0.06789
  Beta virt. eigenvalues --    0.10349   0.11243   0.12182   0.12980   0.13409
  Beta virt. eigenvalues --    0.13520   0.14013   0.14225   0.16981   0.17104
  Beta virt. eigenvalues --    0.17597   0.18344   0.19710   0.20187   0.20829
  Beta virt. eigenvalues --    0.21137   0.21501   0.22037   0.22228   0.22696
  Beta virt. eigenvalues --    0.23618   0.24214   0.24608   0.25876   0.27579
  Beta virt. eigenvalues --    0.29099   0.30343   0.31254   0.32174   0.32655
  Beta virt. eigenvalues --    0.34537   0.35285   0.37121   0.38617   0.40592
  Beta virt. eigenvalues --    0.40788   0.41802   0.42756   0.44016   0.46587
  Beta virt. eigenvalues --    0.48222   0.52281   0.52926   0.55116   0.55553
  Beta virt. eigenvalues --    0.56307   0.57312   0.57766   0.58580   0.59254
  Beta virt. eigenvalues --    0.60030   0.62000   0.62489   0.63218   0.63598
  Beta virt. eigenvalues --    0.64089   0.64534   0.64803   0.65412   0.66425
  Beta virt. eigenvalues --    0.69152   0.69535   0.71153   0.71586   0.72254
  Beta virt. eigenvalues --    0.73515   0.74771   0.75632   0.76233   0.79355
  Beta virt. eigenvalues --    0.81100   0.81847   0.82873   0.84887   0.85807
  Beta virt. eigenvalues --    0.86334   0.86732   0.87126   0.87964   0.88502
  Beta virt. eigenvalues --    0.88877   0.89609   0.89938   0.90267   0.92085
  Beta virt. eigenvalues --    0.92187   0.92710   0.95209   0.95427   0.95956
  Beta virt. eigenvalues --    0.96257   0.97106   0.97490   0.97634   0.97947
  Beta virt. eigenvalues --    0.99246   1.00497   1.00672   1.01384   1.02131
  Beta virt. eigenvalues --    1.03096   1.04442   1.04726   1.05414   1.06830
  Beta virt. eigenvalues --    1.07556   1.09353   1.10079   1.10870   1.11519
  Beta virt. eigenvalues --    1.12965   1.13780   1.15664   1.17244   1.19956
  Beta virt. eigenvalues --    1.20990   1.22235   1.23726   1.25967   1.29323
  Beta virt. eigenvalues --    1.31393   1.33104   1.34962   1.38713   1.40205
  Beta virt. eigenvalues --    1.43153   1.43474   1.44961   1.46576   1.48195
  Beta virt. eigenvalues --    1.51759   1.52512   1.53598   1.54509   1.55420
  Beta virt. eigenvalues --    1.57240   1.58051   1.60183   1.62612   1.65043
  Beta virt. eigenvalues --    1.67037   1.73040   1.75271   1.76688   1.81310
  Beta virt. eigenvalues --    1.83159   1.84124   1.84963   1.85718   1.86643
  Beta virt. eigenvalues --    1.87309   1.87715   1.88832   1.90121   1.91795
  Beta virt. eigenvalues --    1.93782   1.94726   1.96058   1.97200   1.97390
  Beta virt. eigenvalues --    1.98633   1.99991   2.00218   2.01582   2.02235
  Beta virt. eigenvalues --    2.03160   2.05589   2.08459   2.08928   2.10831
  Beta virt. eigenvalues --    2.11687   2.14645   2.15095   2.15947   2.17051
  Beta virt. eigenvalues --    2.19096   2.20651   2.24651   2.26110   2.27003
  Beta virt. eigenvalues --    2.27815   2.29858   2.30866   2.31616   2.34045
  Beta virt. eigenvalues --    2.36604   2.37757   2.38848   2.42923   2.43354
  Beta virt. eigenvalues --    2.47515   2.51544   2.51683   2.56699   2.58794
  Beta virt. eigenvalues --    2.60341   2.61721   2.64358   2.66601   2.67845
  Beta virt. eigenvalues --    2.68510   2.72875   2.74477   2.74679   2.75568
  Beta virt. eigenvalues --    2.82125   2.83858   2.85162   2.89460   2.93202
  Beta virt. eigenvalues --    3.03075   3.18952   3.39026   3.73079   3.78447
  Beta virt. eigenvalues --    3.99532   4.00224   4.09784   4.10460   4.14191
  Beta virt. eigenvalues --    4.16794   4.21691   4.23255   4.31753   4.34032
  Beta virt. eigenvalues --    4.37987   4.38664   4.44543   4.50644   4.65382
  Beta virt. eigenvalues --    4.71155
          Condensed to atoms (all electrons):
               1          2          3          4          5          6
     1  C    4.951399   0.529954  -0.072887  -0.040075  -0.040541   0.544222
     2  C    0.529954   4.607897   0.479845  -0.002592  -0.036385  -0.015062
     3  C   -0.072887   0.479845   5.215149   0.477481  -0.035782  -0.040404
     4  C   -0.040075  -0.002592   0.477481   4.948548   0.555030  -0.033385
     5  C   -0.040541  -0.036385  -0.035782   0.555030   4.863930   0.538737
     6  C    0.544222  -0.015062  -0.040404  -0.033385   0.538737   4.889739
     7  H    0.357757  -0.031300   0.006889   0.000029   0.003918  -0.040234
     8  H    0.000568   0.002368  -0.037487   0.368268  -0.032682   0.003525
     9  H    0.003753   0.000635   0.004129  -0.038228   0.370667  -0.036241
    10  H   -0.034324   0.002920   0.000605   0.004150  -0.037138   0.368705
    11  S    0.008177  -0.081724   0.300510  -0.058305   0.003583   0.000378
    12  N   -0.061686   0.385256  -0.095494   0.008537  -0.000025   0.004282
    13  C    0.006741  -0.086202  -0.036715   0.003125  -0.000033  -0.000095
    14  S   -0.000000   0.000001  -0.000000  -0.000000   0.000000  -0.000000
    15  O   -0.000000  -0.000000   0.000000   0.000000   0.000000   0.000000
    16  O    0.000000   0.000000  -0.000000  -0.000000  -0.000000  -0.000000
    17  C    0.000001   0.000267  -0.000101  -0.000002   0.000000  -0.000000
    18  C    0.000007  -0.000212   0.000042   0.000000  -0.000000   0.000000
    19  H   -0.000001   0.000436  -0.000224  -0.000006   0.000000  -0.000001
    20  H   -0.000001   0.000007   0.000003  -0.000000   0.000000   0.000000
    21  C   -0.000245   0.005638   0.003528  -0.000060   0.000002   0.000003
    22  H   -0.000000  -0.000000  -0.000049   0.000001  -0.000000   0.000000
    23  H   -0.000000   0.000004  -0.000002  -0.000000   0.000000   0.000000
    24  C    0.000004  -0.000240   0.000087  -0.000000  -0.000000   0.000000
    25  H   -0.000018   0.000284   0.000017   0.000001  -0.000000   0.000000
    26  H   -0.000000  -0.000008   0.000015   0.000001  -0.000000   0.000000
    27  H   -0.000000   0.000005  -0.000003  -0.000000   0.000000   0.000000
    28  C    0.000002   0.000214  -0.000116  -0.000002   0.000000  -0.000000
    29  C   -0.000000  -0.000002   0.000001   0.000000  -0.000000   0.000000
    30  H    0.000008   0.000409  -0.000432  -0.000007   0.000000  -0.000000
    31  H   -0.000001  -0.000013   0.000005  -0.000000   0.000000   0.000000
    32  H   -0.000000  -0.000000  -0.000000  -0.000000   0.000000   0.000000
    33  H   -0.000000  -0.000000   0.000000  -0.000000   0.000000   0.000000
    34  H    0.000000   0.000000  -0.000000  -0.000000   0.000000  -0.000000
               7          8          9         10         11         12
     1  C    0.357757   0.000568   0.003753  -0.034324   0.008177  -0.061686
     2  C   -0.031300   0.002368   0.000635   0.002920  -0.081724   0.385256
     3  C    0.006889  -0.037487   0.004129   0.000605   0.300510  -0.095494
     4  C    0.000029   0.368268  -0.038228   0.004150  -0.058305   0.008537
     5  C    0.003918  -0.032682   0.370667  -0.037138   0.003583  -0.000025
     6  C   -0.040234   0.003525  -0.036241   0.368705   0.000378   0.004282
     7  H    0.524590   0.000014  -0.000121  -0.004318  -0.000144  -0.001872
     8  H    0.000014   0.519955  -0.004163  -0.000137  -0.002456  -0.000112
     9  H   -0.000121  -0.004163   0.531376  -0.004248  -0.000135   0.000002
    10  H   -0.004318  -0.000137  -0.004248   0.530731   0.000019  -0.000083
    11  S   -0.000144  -0.002456  -0.000135   0.000019  15.472429  -0.095186
    12  N   -0.001872  -0.000112   0.000002  -0.000083  -0.095186   6.880177
    13  C   -0.000019  -0.000021  -0.000001   0.000003   0.280835   0.491590
    14  S    0.000000  -0.000000   0.000000   0.000000  -0.000043   0.000026
    15  O   -0.000000   0.000000  -0.000000   0.000000   0.000000   0.000000
    16  O    0.000000   0.000000   0.000000  -0.000000   0.000001  -0.000000
    17  C    0.000000  -0.000000  -0.000000  -0.000000  -0.001216   0.000459
    18  C    0.000000  -0.000000   0.000000   0.000000   0.000827  -0.001290
    19  H    0.000001  -0.000000   0.000000  -0.000000   0.001589  -0.000159
    20  H    0.000000   0.000000   0.000000  -0.000000   0.000112   0.000357
    21  C   -0.000009   0.000000  -0.000000  -0.000000  -0.076816  -0.056020
    22  H   -0.000000   0.000000   0.000000  -0.000000   0.005940   0.000062
    23  H   -0.000000  -0.000000   0.000000  -0.000000  -0.000080  -0.000087
    24  C    0.000000   0.000000   0.000000   0.000000   0.003451   0.000663
    25  H    0.000005   0.000000   0.000000  -0.000000   0.005945   0.003983
    26  H   -0.000000   0.000000   0.000000  -0.000000   0.006063   0.000055
    27  H    0.000000  -0.000000   0.000000  -0.000000  -0.000181  -0.000088
    28  C    0.000000  -0.000000  -0.000000  -0.000000  -0.002252  -0.000220
    29  C    0.000000   0.000000  -0.000000   0.000000  -0.000152   0.000020
    30  H    0.000000  -0.000000   0.000000  -0.000000   0.002414  -0.000871
    31  H   -0.000000   0.000000   0.000000   0.000000   0.000135   0.000239
    32  H   -0.000000   0.000000   0.000000  -0.000000   0.000006   0.000000
    33  H   -0.000000  -0.000000  -0.000000   0.000000   0.000046   0.000000
    34  H    0.000000  -0.000000   0.000000  -0.000000  -0.000001  -0.000000
              13         14         15         16         17         18
     1  C    0.006741  -0.000000  -0.000000   0.000000   0.000001   0.000007
     2  C   -0.086202   0.000001  -0.000000   0.000000   0.000267  -0.000212
     3  C   -0.036715  -0.000000   0.000000  -0.000000  -0.000101   0.000042
     4  C    0.003125  -0.000000   0.000000  -0.000000  -0.000002   0.000000
     5  C   -0.000033   0.000000   0.000000  -0.000000   0.000000  -0.000000
     6  C   -0.000095  -0.000000   0.000000  -0.000000  -0.000000   0.000000
     7  H   -0.000019   0.000000  -0.000000   0.000000   0.000000   0.000000
     8  H   -0.000021  -0.000000   0.000000   0.000000  -0.000000  -0.000000
     9  H   -0.000001   0.000000  -0.000000   0.000000  -0.000000   0.000000
    10  H    0.000003   0.000000   0.000000  -0.000000  -0.000000   0.000000
    11  S    0.280835  -0.000043   0.000000   0.000001  -0.001216   0.000827
    12  N    0.491590   0.000026   0.000000  -0.000000   0.000459  -0.001290
    13  C    5.115470  -0.000131   0.000000  -0.000004  -0.005881  -0.053929
    14  S   -0.000131  14.419454   0.291372   0.272608   0.086154  -0.025377
    15  O    0.000000   0.291372   8.282749  -0.038161  -0.030973   0.002441
    16  O   -0.000004   0.272608  -0.038161   8.306861  -0.036243   0.000482
    17  C   -0.005881   0.086154  -0.030973  -0.036243   5.648033   0.262149
    18  C   -0.053929  -0.025377   0.002441   0.000482   0.262149   5.203098
    19  H    0.005644  -0.022531   0.001433   0.001984   0.357917  -0.029694
    20  H   -0.001026  -0.008891  -0.000825  -0.002402   0.351564  -0.030882
    21  C    0.314567   0.001217  -0.000029   0.000208  -0.032904   0.326431
    22  H   -0.007913   0.003596  -0.000045  -0.000731  -0.043538   0.380370
    23  H    0.005453  -0.003585   0.000016   0.008889  -0.038360   0.381319
    24  C   -0.049526  -0.000032   0.000000  -0.000002   0.003657  -0.050449
    25  H   -0.053325   0.000052  -0.000000   0.000007  -0.003264  -0.038591
    26  H   -0.010092  -0.000003   0.000000   0.000000   0.000065  -0.004471
    27  H    0.006288  -0.000004   0.000000  -0.000003   0.000044  -0.003700
    28  C   -0.004716   0.000001  -0.000000   0.000000  -0.000129   0.004215
    29  C    0.000232  -0.000000   0.000000   0.000000   0.000001  -0.000118
    30  H    0.007285   0.000000   0.000000  -0.000000   0.000002   0.000035
    31  H   -0.001440   0.000000   0.000000  -0.000000   0.000000   0.000103
    32  H    0.000006   0.000000  -0.000000  -0.000000  -0.000000   0.000001
    33  H   -0.000015   0.000000  -0.000000   0.000000   0.000000   0.000002
    34  H   -0.000000   0.000000   0.000000   0.000000   0.000000  -0.000005
              19         20         21         22         23         24
     1  C   -0.000001  -0.000001  -0.000245  -0.000000  -0.000000   0.000004
     2  C    0.000436   0.000007   0.005638  -0.000000   0.000004  -0.000240
     3  C   -0.000224   0.000003   0.003528  -0.000049  -0.000002   0.000087
     4  C   -0.000006  -0.000000  -0.000060   0.000001  -0.000000  -0.000000
     5  C    0.000000   0.000000   0.000002  -0.000000   0.000000  -0.000000
     6  C   -0.000001   0.000000   0.000003   0.000000   0.000000   0.000000
     7  H    0.000001   0.000000  -0.000009  -0.000000  -0.000000   0.000000
     8  H   -0.000000   0.000000   0.000000   0.000000  -0.000000   0.000000
     9  H    0.000000   0.000000  -0.000000   0.000000   0.000000   0.000000
    10  H   -0.000000  -0.000000  -0.000000  -0.000000  -0.000000   0.000000
    11  S    0.001589   0.000112  -0.076816   0.005940  -0.000080   0.003451
    12  N   -0.000159   0.000357  -0.056020   0.000062  -0.000087   0.000663
    13  C    0.005644  -0.001026   0.314567  -0.007913   0.005453  -0.049526
    14  S   -0.022531  -0.008891   0.001217   0.003596  -0.003585  -0.000032
    15  O    0.001433  -0.000825  -0.000029  -0.000045   0.000016   0.000000
    16  O    0.001984  -0.002402   0.000208  -0.000731   0.008889  -0.000002
    17  C    0.357917   0.351564  -0.032904  -0.043538  -0.038360   0.003657
    18  C   -0.029694  -0.030882   0.326431   0.380370   0.381319  -0.050449
    19  H    0.471698  -0.020366  -0.005966  -0.003011   0.003915   0.000017
    20  H   -0.020366   0.468144  -0.003610   0.003994  -0.002142   0.000054
    21  C   -0.005966  -0.003610   5.148016  -0.034327  -0.032714   0.361719
    22  H   -0.003011   0.003994  -0.034327   0.537534  -0.025053  -0.003673
    23  H    0.003915  -0.002142  -0.032714  -0.025053   0.497187  -0.003709
    24  C    0.000017   0.000054   0.361719  -0.003673  -0.003709   5.082082
    25  H   -0.000003   0.003357   0.385903   0.004500  -0.003685  -0.034466
    26  H    0.000004   0.000001  -0.034176   0.003680  -0.000240   0.375798
    27  H   -0.000002  -0.000000  -0.037612  -0.000262   0.003811   0.381188
    28  C    0.000000  -0.000002  -0.042923   0.000039   0.000058   0.366916
    29  C    0.000000   0.000000   0.004138  -0.000001  -0.000005  -0.049282
    30  H   -0.000000   0.000000  -0.008264   0.000004   0.000001  -0.038201
    31  H    0.000000  -0.000002  -0.002002   0.000002  -0.000003  -0.044298
    32  H   -0.000000  -0.000000  -0.000133   0.000000   0.000000   0.004307
    33  H   -0.000000  -0.000000   0.000094  -0.000001   0.000000  -0.004898
    34  H   -0.000000   0.000000  -0.000011   0.000000  -0.000001  -0.004753
              25         26         27         28         29         30
     1  C   -0.000018  -0.000000  -0.000000   0.000002  -0.000000   0.000008
     2  C    0.000284  -0.000008   0.000005   0.000214  -0.000002   0.000409
     3  C    0.000017   0.000015  -0.000003  -0.000116   0.000001  -0.000432
     4  C    0.000001   0.000001  -0.000000  -0.000002   0.000000  -0.000007
     5  C   -0.000000  -0.000000   0.000000   0.000000  -0.000000   0.000000
     6  C    0.000000   0.000000   0.000000  -0.000000   0.000000  -0.000000
     7  H    0.000005  -0.000000   0.000000   0.000000   0.000000   0.000000
     8  H    0.000000   0.000000  -0.000000  -0.000000   0.000000  -0.000000
     9  H    0.000000   0.000000   0.000000  -0.000000  -0.000000   0.000000
    10  H   -0.000000  -0.000000  -0.000000  -0.000000   0.000000  -0.000000
    11  S    0.005945   0.006063  -0.000181  -0.002252  -0.000152   0.002414
    12  N    0.003983   0.000055  -0.000088  -0.000220   0.000020  -0.000871
    13  C   -0.053325  -0.010092   0.006288  -0.004716   0.000232   0.007285
    14  S    0.000052  -0.000003  -0.000004   0.000001  -0.000000   0.000000
    15  O   -0.000000   0.000000   0.000000  -0.000000   0.000000   0.000000
    16  O    0.000007   0.000000  -0.000003   0.000000   0.000000  -0.000000
    17  C   -0.003264   0.000065   0.000044  -0.000129   0.000001   0.000002
    18  C   -0.038591  -0.004471  -0.003700   0.004215  -0.000118   0.000035
    19  H   -0.000003   0.000004  -0.000002   0.000000   0.000000  -0.000000
    20  H    0.003357   0.000001  -0.000000  -0.000002   0.000000   0.000000
    21  C    0.385903  -0.034176  -0.037612  -0.042923   0.004138  -0.008264
    22  H    0.004500   0.003680  -0.000262   0.000039  -0.000001   0.000004
    23  H   -0.003685  -0.000240   0.003811   0.000058  -0.000005   0.000001
    24  C   -0.034466   0.375798   0.381188   0.366916  -0.049282  -0.038201
    25  H    0.536569   0.004746  -0.004321  -0.003117   0.000045  -0.000287
    26  H    0.004746   0.570351  -0.031684  -0.039108  -0.002236  -0.004879
    27  H   -0.004321  -0.031684   0.558875  -0.037932  -0.002722   0.004964
    28  C   -0.003117  -0.039108  -0.037932   5.021539   0.360181   0.386242
    29  C    0.000045  -0.002236  -0.002722   0.360181   5.092563  -0.036098
    30  H   -0.000287  -0.004879   0.004964   0.386242  -0.036098   0.553750
    31  H    0.004376   0.005215  -0.004060   0.388334  -0.036750  -0.032827
    32  H   -0.000001  -0.000041  -0.000013  -0.029674   0.382163  -0.002719
    33  H    0.000004   0.004123  -0.000280  -0.036274   0.383820  -0.003976
    34  H    0.000003  -0.000307   0.004330  -0.036817   0.384059   0.004586
              31         32         33         34
     1  C   -0.000001  -0.000000  -0.000000   0.000000
     2  C   -0.000013  -0.000000  -0.000000   0.000000
     3  C    0.000005  -0.000000   0.000000  -0.000000
     4  C   -0.000000  -0.000000  -0.000000  -0.000000
     5  C    0.000000   0.000000   0.000000   0.000000
     6  C    0.000000   0.000000   0.000000  -0.000000
     7  H   -0.000000  -0.000000  -0.000000   0.000000
     8  H    0.000000   0.000000  -0.000000  -0.000000
     9  H    0.000000   0.000000  -0.000000   0.000000
    10  H    0.000000  -0.000000   0.000000  -0.000000
    11  S    0.000135   0.000006   0.000046  -0.000001
    12  N    0.000239   0.000000   0.000000  -0.000000
    13  C   -0.001440   0.000006  -0.000015  -0.000000
    14  S    0.000000   0.000000   0.000000   0.000000
    15  O    0.000000  -0.000000  -0.000000   0.000000
    16  O   -0.000000  -0.000000   0.000000   0.000000
    17  C    0.000000  -0.000000   0.000000   0.000000
    18  C    0.000103   0.000001   0.000002  -0.000005
    19  H    0.000000  -0.000000  -0.000000  -0.000000
    20  H   -0.000002  -0.000000  -0.000000   0.000000
    21  C   -0.002002  -0.000133   0.000094  -0.000011
    22  H    0.000002   0.000000  -0.000001   0.000000
    23  H   -0.000003   0.000000   0.000000  -0.000001
    24  C   -0.044298   0.004307  -0.004898  -0.004753
    25  H    0.004376  -0.000001   0.000004   0.000003
    26  H    0.005215  -0.000041   0.004123  -0.000307
    27  H   -0.004060  -0.000013  -0.000280   0.004330
    28  C    0.388334  -0.029674  -0.036274  -0.036817
    29  C   -0.036750   0.382163   0.383820   0.384059
    30  H   -0.032827  -0.002719  -0.003976   0.004586
    31  H    0.565913  -0.002716   0.004642  -0.004096
    32  H   -0.002716   0.535665  -0.027242  -0.027440
    33  H    0.004642  -0.027242   0.550176  -0.029857
    34  H   -0.004096  -0.027440  -0.029857   0.551826
          Atomic-Atomic Spin Densities.
               1          2          3          4          5          6
     1  C    0.000025  -0.000046   0.000021  -0.000020   0.000019  -0.000035
     2  C   -0.000046   0.000311  -0.000060   0.000029  -0.000018   0.000022
     3  C    0.000021  -0.000060   0.000008  -0.000037   0.000024  -0.000014
     4  C   -0.000020   0.000029  -0.000037   0.000058  -0.000022   0.000014
     5  C    0.000019  -0.000018   0.000024  -0.000022  -0.000018  -0.000018
     6  C   -0.000035   0.000022  -0.000014   0.000014  -0.000018   0.000045
     7  H    0.000001   0.000003   0.000001  -0.000000   0.000000  -0.000002
     8  H   -0.000000   0.000002  -0.000004   0.000004  -0.000003   0.000000
     9  H    0.000000  -0.000000   0.000000  -0.000001   0.000001  -0.000000
    10  H   -0.000001   0.000000  -0.000000   0.000000  -0.000000   0.000001
    11  S    0.000003   0.000001   0.000023  -0.000015   0.000003  -0.000001
    12  N   -0.000001  -0.000165   0.000003   0.000003  -0.000001   0.000004
    13  C    0.000003  -0.000057  -0.000006   0.000001  -0.000000   0.000000
    14  S    0.000000   0.000004  -0.000001  -0.000000   0.000000  -0.000000
    15  O   -0.000000   0.000000   0.000000   0.000000  -0.000000   0.000000
    16  O    0.000000  -0.000000   0.000000   0.000000  -0.000000   0.000000
    17  C   -0.000000   0.000054  -0.000009  -0.000000   0.000000  -0.000000
    18  C   -0.000000  -0.000003   0.000004   0.000000  -0.000000   0.000000
    19  H    0.000000  -0.000006  -0.000001  -0.000000  -0.000000   0.000000
    20  H   -0.000000   0.000011  -0.000001  -0.000000   0.000000  -0.000000
    21  C    0.000000  -0.000004  -0.000000  -0.000000   0.000000  -0.000000
    22  H    0.000000   0.000002  -0.000002  -0.000000   0.000000  -0.000000
    23  H   -0.000000   0.000000  -0.000000  -0.000000   0.000000  -0.000000
    24  C   -0.000000   0.000002  -0.000001  -0.000000   0.000000  -0.000000
    25  H    0.000000   0.000001  -0.000000  -0.000000   0.000000  -0.000000
    26  H    0.000000  -0.000000   0.000000   0.000000  -0.000000   0.000000
    27  H   -0.000000   0.000000  -0.000000  -0.000000   0.000000  -0.000000
    28  C    0.000000  -0.000002   0.000001   0.000000  -0.000000   0.000000
    29  C    0.000000   0.000000  -0.000000  -0.000000   0.000000  -0.000000
    30  H   -0.000000   0.000000  -0.000000   0.000000   0.000000   0.000000
    31  H    0.000000  -0.000000   0.000000   0.000000  -0.000000   0.000000
    32  H    0.000000  -0.000000   0.000000   0.000000  -0.000000   0.000000
    33  H    0.000000   0.000000  -0.000000  -0.000000   0.000000  -0.000000
    34  H    0.000000   0.000000  -0.000000  -0.000000   0.000000  -0.000000
               7          8          9         10         11         12
     1  C    0.000001  -0.000000   0.000000  -0.000001   0.000003  -0.000001
     2  C    0.000003   0.000002  -0.000000   0.000000   0.000001  -0.000165
     3  C    0.000001  -0.000004   0.000000  -0.000000   0.000023   0.000003
     4  C   -0.000000   0.000004  -0.000001   0.000000  -0.000015   0.000003
     5  C    0.000000  -0.000003   0.000001  -0.000000   0.000003  -0.000001
     6  C   -0.000002   0.000000  -0.000000   0.000001  -0.000001   0.000004
     7  H    0.000003  -0.000000   0.000000  -0.000000   0.000000  -0.000004
     8  H   -0.000000   0.000005  -0.000000   0.000000  -0.000003   0.000000
     9  H    0.000000  -0.000000   0.000002  -0.000000   0.000000  -0.000000
    10  H   -0.000000   0.000000  -0.000000  -0.000001  -0.000000   0.000000
    11  S    0.000000  -0.000003   0.000000  -0.000000  -0.000026  -0.000008
    12  N   -0.000004   0.000000  -0.000000   0.000000  -0.000008   0.000107
    13  C   -0.000000  -0.000000  -0.000000   0.000000   0.000008  -0.000113
    14  S    0.000000  -0.000000   0.000000  -0.000000   0.000007   0.000011
    15  O    0.000000   0.000000  -0.000000   0.000000  -0.000000   0.000000
    16  O    0.000000   0.000000  -0.000000   0.000000  -0.000000   0.000000
    17  C    0.000000  -0.000000   0.000000  -0.000000  -0.000000   0.000128
    18  C   -0.000000   0.000000  -0.000000   0.000000   0.000058  -0.000016
    19  H   -0.000000   0.000000   0.000000   0.000000   0.000004   0.000017
    20  H    0.000000  -0.000000   0.000000  -0.000000   0.000002   0.000022
    21  C    0.000000  -0.000000   0.000000  -0.000000  -0.000045   0.000001
    22  H    0.000000  -0.000000   0.000000  -0.000000  -0.000029   0.000006
    23  H    0.000000  -0.000000   0.000000  -0.000000  -0.000004   0.000001
    24  C    0.000000  -0.000000   0.000000  -0.000000  -0.000006  -0.000000
    25  H    0.000000   0.000000  -0.000000   0.000000  -0.000002  -0.000001
    26  H   -0.000000   0.000000  -0.000000   0.000000   0.000009  -0.000000
    27  H    0.000000  -0.000000   0.000000  -0.000000  -0.000000   0.000000
    28  C   -0.000000   0.000000  -0.000000   0.000000   0.000008  -0.000002
    29  C    0.000000  -0.000000   0.000000  -0.000000  -0.000001  -0.000000
    30  H   -0.000000  -0.000000   0.000000  -0.000000  -0.000000   0.000001
    31  H   -0.000000   0.000000  -0.000000   0.000000   0.000000   0.000000
    32  H   -0.000000   0.000000  -0.000000   0.000000   0.000000  -0.000000
    33  H    0.000000  -0.000000   0.000000  -0.000000  -0.000000   0.000000
    34  H    0.000000   0.000000   0.000000  -0.000000   0.000000  -0.000000
              13         14         15         16         17         18
     1  C    0.000003   0.000000  -0.000000   0.000000  -0.000000  -0.000000
     2  C   -0.000057   0.000004   0.000000  -0.000000   0.000054  -0.000003
     3  C   -0.000006  -0.000001   0.000000   0.000000  -0.000009   0.000004
     4  C    0.000001  -0.000000   0.000000   0.000000  -0.000000   0.000000
     5  C   -0.000000   0.000000  -0.000000  -0.000000   0.000000  -0.000000
     6  C    0.000000  -0.000000   0.000000   0.000000  -0.000000   0.000000
     7  H   -0.000000   0.000000   0.000000   0.000000   0.000000  -0.000000
     8  H   -0.000000  -0.000000   0.000000   0.000000  -0.000000   0.000000
     9  H   -0.000000   0.000000  -0.000000  -0.000000   0.000000  -0.000000
    10  H    0.000000  -0.000000   0.000000   0.000000  -0.000000   0.000000
    11  S    0.000008   0.000007  -0.000000  -0.000000  -0.000000   0.000058
    12  N   -0.000113   0.000011   0.000000   0.000000   0.000128  -0.000016
    13  C    0.000221  -0.000160  -0.000000   0.000000  -0.000754  -0.000236
    14  S   -0.000160   0.692959  -0.100747  -0.108902  -0.182181  -0.003245
    15  O   -0.000000  -0.100747   0.349036   0.008787   0.005521  -0.000184
    16  O    0.000000  -0.108902   0.008787   0.353985   0.007132   0.001342
    17  C   -0.000754  -0.182181   0.005521   0.007132   0.350090   0.008918
    18  C   -0.000236  -0.003245  -0.000184   0.001342   0.008918  -0.019269
    19  H    0.000049  -0.000374   0.000349  -0.000142   0.000259   0.001239
    20  H   -0.000242   0.018397   0.001439   0.001098  -0.031743   0.000278
    21  C    0.001109  -0.002031   0.000003  -0.000009  -0.004191   0.005529
    22  H   -0.000055   0.004589  -0.000020  -0.000235  -0.002860  -0.001249
    23  H   -0.000013   0.002790   0.000004  -0.000800  -0.003284   0.001783
    24  C   -0.000061   0.000032  -0.000000   0.000000   0.000322  -0.000796
    25  H    0.000107   0.000009   0.000000  -0.000001  -0.000005   0.000009
    26  H    0.000003  -0.000004   0.000000   0.000000  -0.000008   0.000042
    27  H   -0.000003   0.000002  -0.000000   0.000000   0.000008  -0.000053
    28  C   -0.000012  -0.000001   0.000000  -0.000000  -0.000011   0.000012
    29  C    0.000001   0.000000  -0.000000   0.000000   0.000000  -0.000000
    30  H    0.000001   0.000000  -0.000000   0.000000   0.000000  -0.000001
    31  H   -0.000000  -0.000000  -0.000000  -0.000000  -0.000001  -0.000000
    32  H   -0.000000  -0.000000  -0.000000   0.000000  -0.000000  -0.000000
    33  H    0.000000   0.000000  -0.000000  -0.000000   0.000000   0.000000
    34  H   -0.000000   0.000000   0.000000  -0.000000  -0.000000   0.000000
              19         20         21         22         23         24
     1  C    0.000000  -0.000000   0.000000   0.000000  -0.000000  -0.000000
     2  C   -0.000006   0.000011  -0.000004   0.000002   0.000000   0.000002
     3  C   -0.000001  -0.000001  -0.000000  -0.000002  -0.000000  -0.000001
     4  C   -0.000000  -0.000000  -0.000000  -0.000000  -0.000000  -0.000000
     5  C   -0.000000   0.000000   0.000000   0.000000   0.000000   0.000000
     6  C    0.000000  -0.000000  -0.000000  -0.000000  -0.000000  -0.000000
     7  H   -0.000000   0.000000   0.000000   0.000000   0.000000   0.000000
     8  H    0.000000  -0.000000  -0.000000  -0.000000  -0.000000  -0.000000
     9  H    0.000000   0.000000   0.000000   0.000000   0.000000   0.000000
    10  H    0.000000  -0.000000  -0.000000  -0.000000  -0.000000  -0.000000
    11  S    0.000004   0.000002  -0.000045  -0.000029  -0.000004  -0.000006
    12  N    0.000017   0.000022   0.000001   0.000006   0.000001  -0.000000
    13  C    0.000049  -0.000242   0.001109  -0.000055  -0.000013  -0.000061
    14  S   -0.000374   0.018397  -0.002031   0.004589   0.002790   0.000032
    15  O    0.000349   0.001439   0.000003  -0.000020   0.000004  -0.000000
    16  O   -0.000142   0.001098  -0.000009  -0.000235  -0.000800   0.000000
    17  C    0.000259  -0.031743  -0.004191  -0.002860  -0.003284   0.000322
    18  C    0.001239   0.000278   0.005529  -0.001249   0.001783  -0.000796
    19  H   -0.009525   0.000347   0.000020   0.000013  -0.000106   0.000010
    20  H    0.000347   0.025568  -0.002081   0.000319   0.000558   0.000032
    21  C    0.000020  -0.002081   0.006695  -0.001263  -0.001218   0.000089
    22  H    0.000013   0.000319  -0.001263   0.000504   0.000527   0.000221
    23  H   -0.000106   0.000558  -0.001218   0.000527   0.000134   0.000211
    24  C    0.000010   0.000032   0.000089   0.000221   0.000211   0.001366
    25  H   -0.000010  -0.000039   0.000197  -0.000026  -0.000024   0.000063
    26  H   -0.000000  -0.000001   0.000010  -0.000051  -0.000012  -0.000029
    27  H    0.000000   0.000001   0.000031   0.000009   0.000028  -0.000002
    28  C   -0.000000  -0.000002  -0.000061  -0.000011  -0.000005  -0.000088
    29  C   -0.000000   0.000000   0.000006   0.000000   0.000000  -0.000049
    30  H    0.000000   0.000000   0.000000   0.000000   0.000000  -0.000003
    31  H    0.000000  -0.000000  -0.000013  -0.000000  -0.000000  -0.000001
    32  H    0.000000  -0.000000  -0.000001  -0.000000  -0.000000   0.000004
    33  H   -0.000000   0.000000   0.000000   0.000000   0.000000  -0.000001
    34  H   -0.000000  -0.000000  -0.000000  -0.000000  -0.000000   0.000000
              25         26         27         28         29         30
     1  C    0.000000   0.000000  -0.000000   0.000000   0.000000  -0.000000
     2  C    0.000001  -0.000000   0.000000  -0.000002   0.000000   0.000000
     3  C   -0.000000   0.000000  -0.000000   0.000001  -0.000000  -0.000000
     4  C   -0.000000   0.000000  -0.000000   0.000000  -0.000000   0.000000
     5  C    0.000000  -0.000000   0.000000  -0.000000   0.000000   0.000000
     6  C   -0.000000   0.000000  -0.000000   0.000000  -0.000000   0.000000
     7  H    0.000000  -0.000000   0.000000  -0.000000   0.000000  -0.000000
     8  H    0.000000   0.000000  -0.000000   0.000000  -0.000000  -0.000000
     9  H   -0.000000  -0.000000   0.000000  -0.000000   0.000000   0.000000
    10  H    0.000000   0.000000  -0.000000   0.000000  -0.000000  -0.000000
    11  S   -0.000002   0.000009  -0.000000   0.000008  -0.000001  -0.000000
    12  N   -0.000001  -0.000000   0.000000  -0.000002  -0.000000   0.000001
    13  C    0.000107   0.000003  -0.000003  -0.000012   0.000001   0.000001
    14  S    0.000009  -0.000004   0.000002  -0.000001   0.000000   0.000000
    15  O    0.000000   0.000000  -0.000000   0.000000  -0.000000  -0.000000
    16  O   -0.000001   0.000000   0.000000  -0.000000   0.000000   0.000000
[...]
 -0.00004327,-0.00004571,-0.00006274,0.00010658,0.00001479,0.00001187,0
 .00014725,0.00005598,-0.00004198,-0.00006506,-0.00002598,0.00006501,0.
 00004827,0.00004347,0.00004596,0.00004222,0.00002108,-0.00006515,-0.00
 000192,0.00000315,0.00000175,0.00000222,0.00000868,-0.00000994,0.00000
 646,0.00000588,0.00000279,0.00000687,0.00000556,-0.00000121,-0.0000824
 5,0.00001674,0.00004805,0.00008892,-0.00000727,-0.00007946,-0.00067077
 ,-0.00022050,0.00024546,0.00015002,0.00002972,-0.00002635,-0.00012561,
 0.00017354,0.00006035,-0.00011874,-0.00001393,0.00002680,-0.00028830,0
 .00000610,-0.00025118,-0.00007697,0.00106559,0.00084378,-0.00000656,0.
 00001002,-0.00000529,-0.00002319,0.00000542,-0.00000032,-0.00252913,0.
 00153024,-0.00238606,0.00010694,-0.00003293,0.00000632,0.00005268,-0.0
 0003789,0.00000814,0.00026053,0.01404447,0.00634091,-0.00012434,0.0000
 4070,0.00038680,-0.00036058,0.00130094,0.00064110,0.00030737,-0.000099
 97,0.00014841,0.00368339,-0.04556514,-0.09910089,0.00584644,-0.0332181
 4,0.57459057,0.00010506,0.00008323,0.00007363,-0.00008569,0.00012305,0
 .00000989,-0.00002965,0.00012559,0.00002585,0.00009018,0.00001477,-0.0
 0006857,-0.00005767,-0.00004703,-0.00008402,-0.00007821,-0.00004460,0.
 00009566,-0.00000094,0.00000552,-0.00000610,0.00000009,0.00000124,0.00
 000786,-0.00001338,-0.00000835,-0.00000054,-0.00001381,-0.00000642,-0.
 00000336,0.00038772,-0.00015213,-0.00018578,0.00087283,0.00024124,0.00
 023332,-0.00064334,0.00012582,0.00026381,-0.00001253,-0.00007552,0.000
 00078,-0.00000654,0.00006273,0.00001542,0.00003012,0.00006667,-0.00000
 556,0.00004543,-0.00000535,-0.00004570,-0.00006159,0.00019259,-0.00006
 916,-0.00000878,0.00009364,0.00000615,-0.00001591,0.00000340,0.0000017
 0,0.00007806,-0.00112809,-0.00004886,-0.00002171,-0.00005622,-0.000002
 21,0.00027391,-0.00004962,0.00001593,-0.02362541,-0.01149034,0.0044256
 0,-0.00006034,0.00007951,-0.00004183,0.00099694,-0.00014368,-0.0000232
 1,-0.00267673,0.00310495,-0.00271607,-0.24342320,-0.10985008,0.0380521
 7,0.00421040,0.00225895,-0.00087742,0.26571867,0.00002537,0.00001567,-
 0.00002005,-0.00009273,-0.00019379,0.00003105,-0.00013245,0.00006172,-
 0.00009648,0.00002404,0.00004208,0.00003218,0.00001706,-0.00000177,-0.
 00004166,-0.00000466,-0.00000862,0.00001799,-0.00000161,0.00000176,0.0
 0000362,0.00000269,0.00001028,-0.00001087,0.00000530,0.00000456,0.0000
 0087,-0.00000016,0.00001082,0.00000014,0.00033316,-0.00054511,0.000480
 00,-0.00005412,-0.00000681,0.00000799,0.00067886,-0.00154378,0.0001453
 5,-0.00001000,0.00003509,-0.00000364,-0.00000837,0.00000572,0.00000037
 ,-0.00000451,-0.00000913,0.00000252,-0.00009883,-0.00009943,-0.0000098
 4,0.00004137,0.00012123,0.00009776,0.00003885,-0.00002762,-0.00001614,
 0.00000399,-0.00000166,-0.00000170,-0.00015784,0.00103124,-0.00032064,
 -0.00000929,0.00002314,-0.00000194,-0.00013225,-0.00003486,0.00001369,
 0.01592267,0.00851590,-0.00367041,-0.00000893,-0.00001064,-0.00007605,
 -0.00091390,0.00042603,-0.00017143,0.00303542,-0.00161933,0.00164942,-
 0.11010785,-0.10952654,0.02182927,-0.02743235,-0.01712573,0.00545278,0
 .11765607,0.12437965,-0.00006621,-0.00001212,-0.00003168,-0.00003504,-
 0.00003820,-0.00002635,0.00041598,0.00013231,0.00011965,-0.00011454,-0
 .00008122,-0.00003185,0.00002813,0.00005054,0.00007532,0.00001632,0.00
 000247,-0.00008220,-0.00000301,-0.00002088,-0.00001430,0.00000822,0.00
 000607,-0.00000388,-0.00000238,-0.00000543,-0.00000270,0.00000496,-0.0
 0000629,-0.00000204,-0.00009200,0.00013498,-0.00047198,-0.00028787,-0.
 00002655,-0.00057304,-0.00004424,0.00054451,0.00129748,0.00001039,-0.0
 0002483,0.00000288,-0.00000278,0.00000753,0.00000071,-0.00000476,0.000
 00971,0.00000233,0.00007115,0.00004232,-0.00001355,0.00001128,-0.00008
 980,-0.00004966,-0.00001584,0.00001852,0.00002377,0.00000090,0.0000077
 4,-0.00000041,0.00062180,-0.00031957,0.00014438,-0.00002535,-0.0000124
 5,-0.00001806,0.00008180,-0.00003644,-0.00003487,-0.01413453,-0.007765
 09,0.00215592,0.00007911,0.00013992,-0.00002784,0.00031122,-0.00080389
 ,0.00051911,-0.00284070,0.00155908,-0.00057779,0.03865444,0.02201871,-
 0.05895904,-0.01119119,-0.00675081,0.00182353,-0.03992048,-0.02339319,
 0.05920341,0.00000435,0.00001942,0.00002227,-0.00001880,-0.00000151,-0
 .00001797,0.00006587,0.00007206,0.00006675,0.00000048,-0.00001557,-0.0
 0000875,0.00000534,0.00000406,-0.00000651,-0.00001685,-0.00001152,-0.0
 0000220,0.00000187,-0.00001327,-0.00000516,0.00000105,0.00000606,-0.00
 000701,-0.00000059,0.00000030,-0.00000103,-0.00000078,-0.00000222,-0.0
 0000030,0.00004104,-0.00029572,-0.00008592,-0.00000890,0.00009430,-0.0
 0017843,-0.00018239,0.00014138,0.00043560,0.00001494,-0.00001945,-0.00
 001238,-0.00000232,0.00000195,0.00000170,-0.00000758,0.00000082,0.0000
 1259,0.00000612,-0.00002616,0.00012359,-0.00006302,-0.00016480,-0.0000
 7370,-0.00000188,0.00000282,0.00000339,-0.00000388,0.00004510,0.000011
 41,0.00091186,-0.00099433,-0.00060914,0.00001551,-0.00005941,0.0001766
 1,-0.00003646,-0.00001648,-0.00003784,0.00298353,0.00224067,-0.0276421
 3,0.00003762,0.00023789,0.00056383,-0.00360937,0.00307896,-0.00262282,
 0.00102535,-0.00081174,0.00030143,-0.05668518,-0.00263649,0.03939728,-
 0.00079644,-0.00019258,0.00232980,-0.00374044,-0.00016837,0.02892433,0
 .05904323,0.00002002,0.00002376,0.00000135,-0.00014995,-0.00005519,-0.
 00002012,0.00016629,0.00010982,-0.00001843,-0.00000703,-0.00002757,-0.
 00002748,0.00000701,0.00000773,0.00000210,-0.00001365,-0.00001533,-0.0
 0000795,-0.00000731,-0.00001283,-0.00000827,0.00000312,0.00000326,-0.0
 0000041,-0.00000369,-0.00000165,-0.00000313,0.00000070,-0.00000068,-0.
 00000056,0.00019649,-0.00000033,-0.00012618,-0.00006010,0.00010086,-0.
 00032764,-0.00020216,0.00022422,0.00047194,0.00000178,0.00002272,0.000
 00237,-0.00000500,0.00000095,-0.00000141,-0.00000941,-0.00001254,-0.00
 000145,-0.00001078,-0.00000895,-0.00007823,0.00014609,0.00002897,-0.00
 003310,0.00000069,-0.00000500,0.00000323,0.00001782,-0.00003408,-0.000
 01456,-0.00056034,0.00096057,0.00151707,-0.00006339,0.00001948,-0.0001
 7451,-0.00002448,0.00001892,0.00000854,-0.00241341,-0.00216745,0.01726
 917,0.00040024,-0.00035876,-0.00048084,0.00302218,-0.00140811,0.001271
 50,-0.00018123,0.00043024,-0.00079305,-0.00258538,-0.04881080,0.007786
 70,0.00545426,0.00014137,-0.03355396,-0.00176083,-0.00071641,0.0162707
 0,-0.00149299,0.05521673,-0.00000719,-0.00002946,-0.00000930,0.0001167
 8,0.00004457,0.00002607,-0.00017214,-0.00005006,0.00003046,0.00000567,
 0.00002397,0.00002641,0.00000442,-0.00000530,-0.00000358,0.00001242,0.
 00001368,0.00000384,0.00000624,0.00001581,0.00000991,-0.00000458,-0.00
 000447,0.00000029,0.00000289,0.00000217,0.00000270,0.00000167,0.000004
 59,0.00000075,-0.00013176,-0.00009149,0.00018806,0.00006390,0.00005942
 ,0.00017897,-0.00003071,0.00018958,-0.00051453,0.00002653,-0.00000325,
 -0.00002624,-0.00002025,0.00002425,0.00001976,-0.00001528,0.00000231,0
 .00002653,-0.00004592,0.00003020,0.00002134,-0.00009111,0.00003443,0.0
 0044906,-0.00000280,0.00000256,-0.00000153,-0.00002062,0.00004091,0.00
 000288,0.00056325,-0.00080935,0.00032234,0.00017853,-0.00020153,0.0001
 0723,-0.00000014,-0.00002128,-0.00004923,0.00164221,0.00113551,-0.0151
 3362,-0.00025117,0.00092542,0.00047265,-0.00259887,0.00117941,0.000064
 37,-0.00015346,-0.00026145,0.00048170,0.03881598,0.00765457,-0.3060110
 1,0.00181748,-0.00017141,-0.01016804,0.00102304,0.00030759,-0.00494219
 ,-0.04053158,-0.00769206,0.33282728,-0.00000480,-0.00001254,-0.0000203
 5,0.00001061,-0.00001574,0.00001695,0.00000076,0.00000067,-0.00002381,
 -0.00000831,0.00000019,0.00002478,0.00001507,0.00001102,0.00000608,0.0
 0001170,0.00000618,-0.00001457,-0.00000217,0.00000108,0.00000198,-0.00
 000059,-0.00000039,-0.00000327,0.00000379,0.00000374,0.00000014,0.0000
 0406,0.00000505,0.00000074,0.00001714,0.00000761,-0.00000156,0.0000627
 8,0.00006458,0.00000530,-0.00015688,0.00002805,0.00009711,0.00006255,-
 0.00005083,-0.00000331,-0.00002922,0.00005212,0.00001922,-0.00003659,0
 .00001508,0.00000606,-0.00001725,-0.00001900,-0.00003287,0.00003491,0.
 00004913,0.00004416,-0.00000150,0.00000650,0.,-0.00000479,0.00000248,-
 0.00000085,0.00021228,-0.00008178,-0.00042561,-0.00000306,-0.00000247,
 -0.00000061,0.00001666,-0.00001509,-0.00000820,0.00074835,0.00040392,0
 .00069344,-0.00000360,0.00000185,0.00000951,-0.00006828,-0.00003375,-0
 .00014468,0.00051669,-0.00015733,0.00003825,-0.00058169,-0.00080735,0.
 00042255,-0.20733129,0.10118760,-0.09184756,0.00047539,0.00020097,0.00
 028322,-0.00011435,0.00020844,0.00023822,0.22080493,0.00000323,0.00002
 180,0.00002705,-0.00001322,0.00000025,-0.00002350,-0.00000835,-0.00001
 827,0.00005848,0.00000428,0.00000200,-0.00004644,-0.00003514,-0.000020
 13,-0.00000593,-0.00002662,-0.00000910,0.00002125,0.00000666,-0.000006
 84,-0.00000415,0.00000369,-0.00000580,0.00000960,-0.00000488,-0.000009
 06,-0.00000080,-0.00000474,-0.00000985,-0.00000027,-0.00005402,0.00001
 653,0.00002063,-0.00018559,-0.00008438,-0.00004303,0.00045520,0.000272
 07,-0.00009956,-0.00014851,0.00002292,0.00001379,0.00009244,-0.0001314
 9,-0.00004593,0.00009628,0.00000223,-0.00001912,0.00017684,0.00002093,
 0.00016225,-0.00009826,-0.00066174,-0.00033997,0.00000357,-0.00001422,
 0.00000448,0.00001321,-0.00000154,-0.00000002,0.00164150,-0.00038116,0
 .00116470,-0.00001331,0.00000640,0.00001555,-0.00004287,0.00002294,-0.
 00001901,-0.00145767,-0.00560570,-0.00386493,0.00000368,0.00001771,-0.
 00002507,-0.00033791,0.00011204,-0.00005482,0.00011128,0.00012968,-0.0
 0019880,0.02408759,-0.01423971,0.01534045,0.10060582,-0.11304565,0.058
 99775,-0.00045217,0.00091484,0.00067424,-0.00006013,0.00125025,-0.0001
 8350,-0.11092202,0.12296759,0.00000108,0.00000069,0.00000574,-0.000006
 57,-0.00000501,0.00000618,-0.00004145,-0.00001426,-0.00000008,0.000010
 63,0.00000408,0.00000373,0.00000184,-0.00000379,-0.00000508,0.00000017
 ,0.00000021,0.00000410,0.00000021,-0.00000112,0.00000042,-0.00000293,0
 .00000218,-0.00000302,0.00000072,0.00000300,-0.00000051,-0.00000010,0.
 00000103,0.00000059,0.00001571,-0.00001013,-0.00000287,-0.00002151,0.0
 0001577,-0.00000860,0.00009671,0.00002879,-0.00002164,-0.00001211,-0.0
 0002780,-0.00000139,0.00001548,-0.00001261,-0.00000404,0.00001162,0.00
 001081,-0.00000256,0.00005800,-0.00000404,0.00003938,0.00000727,-0.000
 23048,-0.00010821,-0.00000150,0.00000114,0.00000137,0.00000218,-0.0000
 0113,-0.00000192,0.00036525,-0.00052302,0.00073999,-0.00001486,-0.0000
 0720,0.00000024,-0.00000600,0.00000691,-0.00000800,-0.00011974,-0.0022
 1547,-0.00087785,0.00000053,0.00011640,0.00001735,0.00010615,-0.000308
 22,0.00039678,-0.00019990,0.00001653,-0.00018807,0.01159029,-0.0064830
 4,0.00571515,-0.09208702,0.05950648,-0.10278973,-0.00020428,0.00072373
 ,0.00022212,0.00029990,0.00064331,0.00043112,0.10057873,-0.06278555,0.
 10714078,0.00000316,0.00000445,0.00000049,-0.00001619,-0.00000689,-0.0
 0000225,-0.00001083,-0.00001001,-0.00000408,0.00000021,0.00000544,-0.0
 0000988,-0.00001062,-0.00000490,-0.00000212,-0.00000532,-0.00000094,0.
 00000606,0.00000072,-0.00000090,-0.00000019,0.00000264,-0.00000552,0.0
 0000505,-0.00000014,-0.00000299,-0.00000026,0.00000004,-0.00000157,0.0
 0000047,-0.00001835,0.00005931,0.00003904,-0.00004336,-0.00002341,0.00
 000894,0.00010716,0.00001678,-0.00007718,-0.00000958,0.00002229,0.0000
 1288,0.00000758,-0.00001987,-0.00001037,0.00000459,-0.00001125,-0.0000
 0946,0.00000416,0.00000979,-0.00000465,-0.00001953,-0.00000427,0.00000
 870,0.00000275,-0.00000672,-0.00000040,0.00000219,-0.00000723,-0.00000
 119,-0.00003928,0.00008821,-0.00012554,0.00000393,0.00002331,-0.000014
 00,-0.00000918,0.00000493,0.00000987,0.00006673,-0.00032828,0.00099453
 ,-0.00002089,-0.00006041,-0.00007696,0.00005608,0.00038847,-0.00016562
 ,-0.00003136,-0.00006203,0.00010826,-0.00111170,-0.00003867,0.00138581
 ,-0.05764326,-0.00095793,0.04415565,0.00008790,0.00018837,-0.00059462,
 0.00088214,0.00036825,-0.00004760,0.00537938,-0.00057193,-0.02602161,0
 .05621453,0.00001200,0.00000094,0.00000412,0.00001817,0.00000806,0.000
 02483,-0.00013515,-0.00003479,-0.00000826,0.00002435,0.00002338,0.0000
 1010,-0.00000758,-0.00001260,-0.00001818,-0.00000440,0.00000242,0.0000
 1924,0.00000326,0.00000543,0.00000413,-0.00000261,-0.00000374,0.000001
 15,0.00000192,0.00000144,0.00000081,0.00000047,0.00000130,0.00000110,-
 0.00000211,0.00002543,0.00009832,0.00007761,0.00003093,0.00013763,0.00
 000253,0.00001486,-0.00027524,0.00001038,-0.00000157,-0.00000679,-0.00
 000663,0.00000907,0.00000549,-0.00000693,0.00000036,0.00000333,-0.0000
 1363,0.00000764,-0.00000499,-0.00001674,0.00000860,0.00012643,0.000001
 85,-0.00000178,-0.00000171,-0.00000601,0.00000534,-0.00000122,-0.00014
 861,-0.00006456,0.00000037,0.00003857,-0.00003144,0.00002483,-0.000000
 41,-0.00000278,-0.00000163,-0.00074055,0.00176000,-0.00133595,-0.00006
 327,0.00012951,0.00022854,0.00025516,-0.00026298,0.00083916,0.00007634
 ,-0.00004872,0.00014747,0.00624587,0.00026685,-0.03350120,-0.00101758,
 -0.04858977,0.00552835,-0.00033108,0.00145982,0.00050917,0.00078012,-0
 .00628808,-0.00219614,-0.00432518,-0.00074911,0.01576826,0.00048712,0.
 05309174,0.00001523,0.00000731,0.00001143,0.00000762,0.00001567,0.0000
 0534,-0.00009483,-0.00003181,0.00001430,0.00002321,0.00001911,-0.00001
 381,-0.00001757,-0.00001584,-0.00001814,-0.00001078,-0.00000319,0.0000
 2549,0.00000255,0.00000733,0.00000310,-0.00000104,-0.00000659,0.000006
 15,-0.00000171,-0.00000292,0.00000046,-0.00000130,-0.00000056,0.000000
 36,-0.00000324,-0.00006561,0.00007348,0.00004111,-0.00001057,0.0001377
 7,0.00007676,0.00001308,-0.00027726,-0.00003303,0.00001295,-0.00001430
 ,0.00001706,-0.00002662,-0.00000152,0.00002255,-0.00000078,0.00000891,
 0.00001682,0.00000658,0.00001992,-0.00000992,-0.00008832,0.00000460,0.
 00000238,-0.00000404,-0.00000087,0.00000079,0.00000289,-0.00000078,-0.
 00004636,-0.00006181,0.00045856,0.00001274,-0.00002559,0.00001055,-0.0
 0001478,0.00000531,-0.00000972,-0.00033629,0.00080777,0.00054927,-0.00
 009644,0.00025396,0.00005607,0.00065729,-0.00061975,0.00043986,-0.0000
 1563,-0.00010352,-0.00004788,0.00150904,-0.00014632,-0.01155668,0.0440
 5451,0.00522521,-0.31197114,-0.00028249,-0.00008259,0.00039829,-0.0002
 2407,-0.00245861,0.00084533,0.00294941,0.00016664,-0.01305899,-0.04849
 365,-0.00312424,0.33804273,-0.00000587,-0.00001073,0.00000757,0.000031
 16,0.00001224,-0.00000917,0.00004500,0.00002178,0.00002302,-0.00000901
 ,-0.00001593,-0.00001045,0.00000569,0.00000355,0.00001219,0.00000744,0
 .00000123,-0.00000889,-0.00000178,0.00000308,-0.00000099,-0.00000142,0
 .00000532,-0.00000127,-0.00000370,-0.00000003,0.00000013,-0.00000377,-
 0.00000039,-0.00000162,-0.00001488,0.00000264,-0.00005137,-0.00005653,
 -0.00003077,-0.00003296,-0.00001467,0.00015609,0.00005311,-0.00006621,
 0.00001078,0.00000613,0.00003106,-0.00003159,-0.00001349,0.00004387,0.
 00000787,-0.00000844,0.00001663,0.00000398,0.00003035,-0.00002556,-0.0
 0008396,-0.00002943,0.00000128,-0.00000006,-0.00000022,0.00000287,-0.0
 0000323,-0.00000029,0.00027439,0.00004455,0.00001630,-0.00000283,0.000
 00047,0.00000042,-0.00001126,-0.00000304,-0.00000304,0.00117363,0.0005
 9835,-0.00002969,-0.00001265,-0.00001595,-0.00000606,-0.00005038,-0.00
 007123,-0.00007027,0.00025463,-0.00048067,0.00029855,0.00278448,0.0019
 5782,-0.00139429,-0.24295862,-0.11519135,0.03990025,0.00120315,0.00116
 402,-0.00014770,0.00024894,-0.00046225,-0.00039405,-0.02001269,-0.0128
 6791,0.00557712,-0.00383635,-0.00120725,0.00027407,0.26096396,0.000026
 04,0.00001605,0.00002092,0.00002119,0.00002969,0.00001059,0.00000228,0
 .00002300,0.00000684,0.00002069,0.00000021,-0.00001718,-0.00001024,-0.
 00000905,-0.00001427,-0.00001224,-0.00000791,0.00002037,-0.00000097,0.
 00000466,-0.00000045,-0.00000179,0.00000144,0.00000196,-0.00000423,-0.
 00000221,0.00000036,-0.00000469,-0.00000122,-0.00000148,0.00006681,-0.
 00003855,-0.00006216,0.00025495,0.00004962,0.00010227,-0.00026713,0.00
 002835,0.00004558,-0.00003154,-0.00002585,0.00000269,0.00001010,0.0000
 1186,0.00000158,0.00002599,0.00002722,-0.00000592,0.00000491,-0.000005
 94,-0.00000087,0.00001002,-0.00000045,0.00000010,-0.00000327,0.0000197
 0,-0.00000072,-0.00000438,-0.00000276,-0.00000019,0.00027729,0.0002341
 8,-0.00025639,-0.00000143,-0.00001069,-0.00000162,0.00005117,-0.000031
 07,0.00000108,-0.00205534,0.00126674,0.00018816,-0.00005023,0.00000921
 ,-0.00000200,0.00009371,-0.00004057,0.00001898,0.00122967,-0.00024609,
 0.00012312,-0.02744740,-0.01717975,0.00622954,-0.11494804,-0.11706959,
 0.02446047,0.00136253,-0.00558832,-0.00274174,0.00025686,0.00136395,0.
 00002980,0.01418719,0.00921358,-0.00421644,0.00045899,-0.00076121,0.00
 033549,0.12648256,0.12872181,0.00001725,0.00001500,0.00001586,-0.00001
 435,0.00000430,0.00000401,-0.00005247,-0.00001280,-0.00000087,0.000023
 71,0.00001224,-0.00001277,-0.00001481,-0.00001286,-0.00001800,-0.00001
 295,-0.00000583,0.00002170,0.00000088,0.00000098,0.00000052,-0.0000002
 2,-0.00000387,0.00000356,-0.00000132,-0.00000169,-0.00000023,-0.000001
 86,-0.00000145,0.00000045,0.00002994,-0.00002775,0.00001734,0.00006389
 ,-0.00000260,0.00007149,-0.00000288,-0.00002458,-0.00013562,-0.0000055
 9,0.00002000,0.00000921,0.00000451,-0.00001249,-0.00000801,0.00000345,
 -0.00001014,-0.00000799,-0.00001114,-0.00000080,0.00000332,0.00001283,
 0.00003060,-0.00000193,0.00000207,-0.00000290,-0.00000348,0.00000063,-
 0.00000530,-0.00000087,-0.00015399,0.00008920,-0.00005750,0.00000672,0
 .00000774,-0.00000542,-0.00000690,0.00000301,0.00001640,-0.00004451,0.
 00066256,-0.00002375,-0.00001228,-0.00003300,-0.00003143,0.00018039,0.
 00002476,-0.00002266,0.00014134,0.00023181,0.00023898,-0.01193153,-0.0
 0706410,0.00199478,0.04001615,0.02462786,-0.05833814,0.00033481,-0.002
 87970,-0.00012548,-0.00060355,0.00057396,0.00032021,-0.01290860,-0.008
 91644,0.00235753,0.02892588,0.01699273,-0.00414089,-0.04398551,-0.0242
 7845,0.05785970\\0.00000579,0.00000329,-0.00000046,-0.00000401,-0.0000
 0958,-0.00000121,0.00000234,0.00000598,0.00000596,-0.00000056,0.000003
 19,0.00000029,0.00000181,0.00000129,-0.00000434,-0.00000028,0.00000077
 ,0.00000369,0.,-0.00000061,0.00000121,-0.00000232,-0.00000094,-0.00000
 188,0.00000040,0.00000129,0.00000055,0.00000092,0.00000106,0.00000071,
 -0.00000220,0.00000153,0.00000331,0.00000577,0.00001179,0.00000466,-0.
 00001286,-0.00001966,-0.00002305,-0.00002271,0.00000377,-0.00001930,-0
 .00000080,-0.00001183,0.00000688,0.00001605,0.00001346,0.00000850,0.00
 001570,-0.00000763,0.00001169,-0.00000825,-0.00000090,-0.00000443,-0.0
 0000302,0.00000116,0.00000160,-0.00000147,0.00000037,0.00000286,0.0000
 0308,0.00000758,0.00001575,0.00000041,-0.00000031,0.00000145,0.0000015
 0,-0.00000162,0.00000084,-0.00001006,-0.00000301,-0.00001210,0.0000018
 5,0.00000027,-0.00000160,0.00000285,0.00000225,0.00000052,0.00000292,0
 .00000112,0.00000055,0.00000702,0.00000345,0.00001004,-0.00000091,-0.0
 0000713,-0.00000470,-0.00000128,-0.00000245,-0.00000312,0.00000048,-0.
 00000149,-0.00000180,0.00000126,0.00000027,-0.00000174,0.00000012,0.00
 000186,-0.00000140,0.00000047,0.00000144,0.00000005\\\@
 The archive entry for this job was punched.


 CHARLIE BROWN.."I CAN'T GET THAT STUPID KITE IN THE
 AIR... I CAN'T... I C A N N O T..."
 LUCY.."OH COME NOW CHARLIE BROWN...THAT'S NO WAY TO TALK...
 THE TROUBLE WITH YOU IS YOU DON'T BELIEVE IN YOURSELF... YOU
 DON'T BELIEVE IN YOUR OWN ABILITIES...  YOU'VE GOT TO SAY TO
 YOURSELF...'I BELIEVE I CAN FLY THIS KITE.'... GO AHEAD SAY
 IT...."
 CHARLIE BROWN.."I BELIEVE THAT I CAN FLY THIS STUPID
 KITE.....I BELIEVE THAT I CAN FLY THIS KITE........
 I  A C T U A L L Y  B E L I E V E  T H A T  I  C A N ******"
 LUCY.."I'LL BET YOU TEN-TO-ONE YOU'RE WRONG......."    SCHULZ
 Job cpu time:       0 days  2 hours 16 minutes 20.4 seconds.
 Elapsed time:       0 days  0 hours  1 minutes 32.5 seconds.
 File lengths (MBytes):  RWF=    760 Int=      0 D2E=      0 Chk=     13 Scr=      1
 Normal termination of Gaussian 16 at Thu Nov 20 13:08:35 2025.
