 Entering Gaussian System, Link 0=g16
 Initial command:
 /public/software/g16/l1.exe "/tmp/Gau-12395.inp" -scrdir="/tmp/"
 Entering Link 1 = /public/software/g16/l1.exe PID=     12396.
  
 Copyright (c) 1988-2021, Gaussian, Inc.  All Rights Reserved.
  
 This is part of the Gaussian(R) 16 program.  It is based on
 the Gaussian(R) 09 system (copyright 2009, Gaussian, Inc.),
 the Gaussian(R) 03 system (copyright 2003, Gaussian, Inc.),
 the Gaussian(R) 98 system (copyright 1998, Gaussian, Inc.),
 the Gaussian(R) 94 system (copyright 1995, Gaussian, Inc.),
 the Gaussian 92(TM) system (copyright 1992, Gaussian, Inc.),
 the Gaussian 90(TM) system (copyright 1990, Gaussian, Inc.),
 the Gaussian 88(TM) system (copyright 1988, Gaussian, Inc.),
 the Gaussian 86(TM) system (copyright 1986, Carnegie Mellon
 University), and the Gaussian 82(TM) system (copyright 1983,
 Carnegie Mellon University). Gaussian is a federally registered
 trademark of Gaussian, Inc.
  
 This software contains proprietary and confidential information,
 including trade secrets, belonging to Gaussian, Inc.
  
 This software is provided under written license and may be
 used, copied, transmitted, or stored only in accord with that
 written license.
  
 The following legend is applicable only to US Government
 contracts under FAR:
  
                    RESTRICTED RIGHTS LEGEND
  
 Use, reproduction and disclosure by the US Government is
 subject to restrictions as set forth in subparagraphs (a)
 and (c) of the Commercial Computer Software - Restricted
 Rights clause in FAR 52.227-19.
  
 Gaussian, Inc.
 340 Quinnipiac St., Bldg. 40, Wallingford CT 06492
  
  
 ---------------------------------------------------------------
 Warning -- This program may not be used in any manner that
 competes with the business of Gaussian, Inc. or will provide
 assistance to any competitor of Gaussian, Inc.  The licensee
 of this program is prohibited from giving any competitor of
 Gaussian, Inc. access to this program.  By using this program,
 the user acknowledges that Gaussian, Inc. is engaged in the
 business of creating and licensing software in the field of
 computational chemistry and represents and warrants to the
 licensee that it is not a competitor of Gaussian, Inc. and that
 it will not use this program in any manner prohibited above.
 ---------------------------------------------------------------
  

 Cite this work as:
 Gaussian 16, Revision C.02,
 M. J. Frisch, G. W. Trucks, H. B. Schlegel, G. E. Scuseria, 
 M. A. Robb, J. R. Cheeseman, G. Scalmani, V. Barone, 
 G. A. Petersson, H. Nakatsuji, X. Li, M. Caricato, A. V. Marenich, 
 J. Bloino, B. G. Janesko, R. Gomperts, B. Mennucci, H. P. Hratchian, 
 J. V. Ortiz, A. F. Izmaylov, J. L. Sonnenberg, D. Williams-Young, 
 F. Ding, F. Lipparini, F. Egidi, J. Goings, B. Peng, A. Petrone, 
 T. Henderson, D. Ranasinghe, V. G. Zakrzewski, J. Gao, N. Rega, 
 G. Zheng, W. Liang, M. Hada, M. Ehara, K. Toyota, R. Fukuda, 
 J. Hasegawa, M. Ishida, T. Nakajima, Y. Honda, O. Kitao, H. Nakai, 
 T. Vreven, K. Throssell, J. A. Montgomery, Jr., J. E. Peralta, 
 F. Ogliaro, M. J. Bearpark, J. J. Heyd, E. N. Brothers, K. N. Kudin, 
 V. N. Staroverov, T. A. Keith, R. Kobayashi, J. Normand, 
 K. Raghavachari, A. P. Rendell, J. C. Burant, S. S. Iyengar, 
 J. Tomasi, M. Cossi, J. M. Millam, M. Klene, C. Adamo, R. Cammi, 
 J. W. Ochterski, R. L. Martin, K. Morokuma, O. Farkas, 
 J. B. Foresman, and D. J. Fox, Gaussian, Inc., Wallingford CT, 2019.
 
 ******************************************
 Gaussian 16:  ES64L-G16RevC.02  7-Dec-2021
                20-Nov-2025 
 ******************************************
 %nprocshared=96
 Will use up to   96 processors via shared memory.
 %mem=10GB
 %chk=IM4.chk
 -------------------------
 # opt freq 6-31g(d) m062x
 -------------------------
 1/18=20,19=15,26=3,38=1/1,3;
 2/9=110,12=2,17=6,18=5,40=1/2;
 3/5=1,6=6,7=1,11=2,25=1,30=1,71=1,74=-55/1,2,3;
 4//1;
 5/5=2,38=5/2;
 6/7=2,8=2,9=2,10=2,28=1/1;
 7//1,2,3,16;
 1/18=20,19=15,26=3/3(2);
 2/9=110/2;
 99//99;
 2/9=110/2;
 3/5=1,6=6,7=1,11=2,25=1,30=1,71=1,74=-55/1,2,3;
 4/5=5,16=3,69=1/1;
 5/5=2,38=5/2;
 7//1,2,3,16;
 1/18=20,19=15,26=3/3(-5);
 2/9=110/2;
 6/7=2,8=2,9=2,10=2,19=2,28=1/1;
 99/9=1/99;
 -------------------
 Title Card Required
 -------------------
 Symbolic Z-matrix:
 Charge =  0 Multiplicity = 2
 C                    -5.55264  -0.71379   0.95082 
 C                    -4.53688  -0.17378   0.14458 
 C                    -4.18387  -0.8086   -1.06855 
 C                    -4.82469  -1.97926  -1.49197 
 C                    -5.82149  -2.49912  -0.67877 
 C                    -6.18343  -1.873     0.53231 
 H                    -5.81633  -0.21774   1.8851 
 H                    -4.54614  -2.469    -2.42505 
 H                    -6.33551  -3.41157  -0.98321 
 H                    -6.97154  -2.31129   1.14522 
 S                    -2.88807   0.06097  -1.83233 
 N                    -3.80122   0.95772   0.43691 
 C                    -2.94246   1.1699   -0.49054 
 S                    -1.88823   2.62399  -0.50373 
 O                    -2.65407   3.71463   0.0886 
 O                    -1.39394   2.73742  -1.87384 
 C                    -0.51507   2.24496   0.57961 
 C                     0.27133   3.54454   0.79919 
 H                     0.08731   1.48883   0.05642 
 H                    -0.93965   1.83786   1.5084 
 C                     1.52236   3.31766   1.57758 
 H                     0.51687   3.97118  -0.184 
 H                    -0.38619   4.25848   1.32304 
 C                     2.84454   3.63911   1.0054 
 H                     1.46377   2.85959   2.56636 
 H                     3.6602    3.67231   1.73904 
 H                     2.85136   4.56876   0.41256 
 S                     3.35763   2.41533  -0.24349 
 C                     3.60035   0.90724   0.68128 
 O                     2.2193    2.2036   -1.14998 
 O                     4.63508   2.83697  -0.8218 
 C                     3.89507  -0.24204  -0.27426 
 H                     2.66971   0.7417    1.24287 
 H                     4.42536   1.09273   1.38292 
 H                     4.92355  -0.1485   -0.64793 
 C                     3.70053  -1.6144    0.40321 
 H                     3.22171  -0.18143  -1.14435 
 C                     2.22697  -1.83004   0.63107 
 C                     4.34648  -2.74692  -0.40252 
 H                     4.16133  -1.58057   1.40421 
 S                     1.27762  -2.78908  -0.50542 
 N                     1.55327  -1.28553   1.58729 
 H                     3.99555  -3.71254  -0.00339 
 H                     3.99571  -2.69393  -1.44917 
 C                     5.87279  -2.73431  -0.37532 
 C                    -0.14798  -2.4154    0.41554 
 C                     0.20631  -1.58736   1.50241 
 H                     6.25187  -1.78376  -0.78131 
 H                     6.21028  -2.77991   0.67298 
 C                     6.47126  -3.89437  -1.16282 
 C                    -1.4678   -2.83407   0.21608 
 C                    -0.78514  -1.14519   2.39243 
 H                     6.16443  -3.85166  -2.21852 
 H                     7.56915  -3.87662  -1.1296 
 H                     6.13581  -4.86015  -0.75641 
 C                    -2.43083  -2.40034   1.11795 
 H                    -1.73431  -3.48064  -0.62107 
 C                    -2.09552  -1.55266   2.19014 
 H                    -0.50691  -0.49823   3.22541 
 H                    -3.46776  -2.7152    0.98561 
 H                    -2.87943  -1.21701   2.87108 
 

 GradGradGradGradGradGradGradGradGradGradGradGradGradGradGradGradGradGrad
 Berny optimization.
 Initialization pass.
                           ----------------------------
                           !    Initial Parameters    !
                           ! (Angstroms and Degrees)  !
 --------------------------                            --------------------------
 ! Name  Definition              Value          Derivative Info.                !
 --------------------------------------------------------------------------------
 ! R1    R(1,2)                  1.4048         estimate D2E/DX2                !
 ! R2    R(1,6)                  1.3845         estimate D2E/DX2                !
 ! R3    R(1,7)                  1.0902         estimate D2E/DX2                !
 ! R4    R(2,3)                  1.414          estimate D2E/DX2                !
 ! R5    R(2,12)                 1.3809         estimate D2E/DX2                !
 ! R6    R(3,4)                  1.4001         estimate D2E/DX2                !
 ! R7    R(3,11)                 1.7374         estimate D2E/DX2                !
 ! R8    R(4,5)                  1.3875         estimate D2E/DX2                !
 ! R9    R(4,8)                  1.09           estimate D2E/DX2                !
 ! R10   R(5,6)                  1.4106         estimate D2E/DX2                !
 ! R11   R(5,9)                  1.0906         estimate D2E/DX2                !
 ! R12   R(6,10)                 1.0904         estimate D2E/DX2                !
 ! R13   R(11,13)                1.7416         estimate D2E/DX2                !
 ! R14   R(12,13)                1.2817         estimate D2E/DX2                !
 ! R15   R(13,14)                1.7961         estimate D2E/DX2                !
 ! R16   R(14,15)                1.4584         estimate D2E/DX2                !
 ! R17   R(14,16)                1.4609         estimate D2E/DX2                !
 ! R18   R(14,17)                1.7897         estimate D2E/DX2                !
 ! R19   R(17,18)                1.5348         estimate D2E/DX2                !
 ! R20   R(17,19)                1.0992         estimate D2E/DX2                !
 ! R21   R(17,20)                1.0994         estimate D2E/DX2                !
 ! R22   R(18,21)                1.4908         estimate D2E/DX2                !
 ! R23   R(18,22)                1.0995         estimate D2E/DX2                !
 ! R24   R(18,23)                1.1029         estimate D2E/DX2                !
 ! R25   R(21,24)                1.4761         estimate D2E/DX2                !
 ! R26   R(21,25)                1.0913         estimate D2E/DX2                !
 ! R27   R(24,26)                1.0976         estimate D2E/DX2                !
 ! R28   R(24,27)                1.1026         estimate D2E/DX2                !
 ! R29   R(24,28)                1.8223         estimate D2E/DX2                !
 ! R30   R(28,29)                1.7856         estimate D2E/DX2                !
 ! R31   R(28,30)                1.4705         estimate D2E/DX2                !
 ! R32   R(28,31)                1.4643         estimate D2E/DX2                !
 ! R33   R(29,32)                1.5234         estimate D2E/DX2                !
 ! R34   R(29,33)                1.0995         estimate D2E/DX2                !
 ! R35   R(29,34)                1.0988         estimate D2E/DX2                !
 ! R36   R(32,35)                1.0982         estimate D2E/DX2                !
 ! R37   R(32,36)                1.5428         estimate D2E/DX2                !
 ! R38   R(32,37)                1.1019         estimate D2E/DX2                !
 ! R39   R(36,38)                1.5066         estimate D2E/DX2                !
 ! R40   R(36,39)                1.5327         estimate D2E/DX2                !
 ! R41   R(36,40)                1.1025         estimate D2E/DX2                !
 ! R42   R(38,41)                1.7643         estimate D2E/DX2                !
 ! R43   R(38,42)                1.2902         estimate D2E/DX2                !
 ! R44   R(39,43)                1.1022         estimate D2E/DX2                !
 ! R45   R(39,44)                1.1051         estimate D2E/DX2                !
 ! R46   R(39,45)                1.5266         estimate D2E/DX2                !
 ! R47   R(41,46)                1.7378         estimate D2E/DX2                !
 ! R48   R(42,47)                1.383          estimate D2E/DX2                !
 ! R49   R(45,48)                1.1009         estimate D2E/DX2                !
 ! R50   R(45,49)                1.1022         estimate D2E/DX2                !
 ! R51   R(45,50)                1.5245         estimate D2E/DX2                !
 ! R52   R(46,47)                1.4115         estimate D2E/DX2                !
 ! R53   R(46,51)                1.3989         estimate D2E/DX2                !
 ! R54   R(47,52)                1.4038         estimate D2E/DX2                !
 ! R55   R(50,53)                1.1002         estimate D2E/DX2                !
 ! R56   R(50,54)                1.0985         estimate D2E/DX2                !
 ! R57   R(50,55)                1.1002         estimate D2E/DX2                !
 ! R58   R(51,56)                1.3889         estimate D2E/DX2                !
 ! R59   R(51,57)                1.0908         estimate D2E/DX2                !
 ! R60   R(52,58)                1.3871         estimate D2E/DX2                !
 ! R61   R(52,59)                1.0908         estimate D2E/DX2                !
 ! R62   R(56,58)                1.4073         estimate D2E/DX2                !
 ! R63   R(56,60)                1.0917         estimate D2E/DX2                !
 ! R64   R(58,61)                1.0913         estimate D2E/DX2                !
 ! A1    A(2,1,6)              118.5425         estimate D2E/DX2                !
 ! A2    A(2,1,7)              119.4615         estimate D2E/DX2                !
 ! A3    A(6,1,7)              121.9944         estimate D2E/DX2                !
 ! A4    A(1,2,3)              120.0227         estimate D2E/DX2                !
 ! A5    A(1,2,12)             125.3583         estimate D2E/DX2                !
 ! A6    A(3,2,12)             114.6135         estimate D2E/DX2                !
 ! A7    A(2,3,4)              121.3712         estimate D2E/DX2                !
 ! A8    A(2,3,11)             109.7954         estimate D2E/DX2                !
 ! A9    A(4,3,11)             128.8196         estimate D2E/DX2                !
 ! A10   A(3,4,5)              117.6995         estimate D2E/DX2                !
 ! A11   A(3,4,8)              121.1711         estimate D2E/DX2                !
 ! A12   A(5,4,8)              121.1284         estimate D2E/DX2                !
 ! A13   A(4,5,6)              121.4141         estimate D2E/DX2                !
 ! A14   A(4,5,9)              119.2395         estimate D2E/DX2                !
 ! A15   A(6,5,9)              119.3464         estimate D2E/DX2                !
 ! A16   A(1,6,5)              120.9492         estimate D2E/DX2                !
 ! A17   A(1,6,10)             119.7325         estimate D2E/DX2                !
 ! A18   A(5,6,10)             119.3183         estimate D2E/DX2                !
 ! A19   A(3,11,13)             87.5182         estimate D2E/DX2                !
 ! A20   A(2,12,13)            109.841          estimate D2E/DX2                !
 ! A21   A(11,13,12)           118.2315         estimate D2E/DX2                !
 ! A22   A(11,13,14)           119.4393         estimate D2E/DX2                !
 ! A23   A(12,13,14)           122.1831         estimate D2E/DX2                !
 ! A24   A(13,14,15)           107.1112         estimate D2E/DX2                !
 ! A25   A(13,14,16)           105.5649         estimate D2E/DX2                !
 ! A26   A(13,14,17)           105.9289         estimate D2E/DX2                !
 ! A27   A(15,14,16)           120.0339         estimate D2E/DX2                !
 ! A28   A(15,14,17)           108.3878         estimate D2E/DX2                !
 ! A29   A(16,14,17)           108.9382         estimate D2E/DX2                !
 ! A30   A(14,17,18)           107.482          estimate D2E/DX2                !
 ! A31   A(14,17,19)           106.1426         estimate D2E/DX2                !
 ! A32   A(14,17,20)           107.0684         estimate D2E/DX2                !
 ! A33   A(18,17,19)           111.7014         estimate D2E/DX2                !
 ! A34   A(18,17,20)           112.9894         estimate D2E/DX2                !
 ! A35   A(19,17,20)           111.0404         estimate D2E/DX2                !
 ! A36   A(17,18,21)           112.0746         estimate D2E/DX2                !
 ! A37   A(17,18,22)           108.3638         estimate D2E/DX2                !
 ! A38   A(17,18,23)           108.0959         estimate D2E/DX2                !
 ! A39   A(21,18,22)           109.7875         estimate D2E/DX2                !
 ! A40   A(21,18,23)           110.5365         estimate D2E/DX2                !
 ! A41   A(22,18,23)           107.8584         estimate D2E/DX2                !
 ! A42   A(18,21,24)           121.0735         estimate D2E/DX2                !
 ! A43   A(18,21,25)           119.4658         estimate D2E/DX2                !
 ! A44   A(24,21,25)           119.3872         estimate D2E/DX2                !
 ! A45   A(21,24,26)           114.4027         estimate D2E/DX2                !
 ! A46   A(21,24,27)           113.4257         estimate D2E/DX2                !
 ! A47   A(21,24,28)           111.8154         estimate D2E/DX2                !
 ! A48   A(26,24,27)           109.2262         estimate D2E/DX2                !
 ! A49   A(26,24,28)           105.6153         estimate D2E/DX2                !
 ! A50   A(27,24,28)           101.3031         estimate D2E/DX2                !
 ! A51   A(24,28,29)           104.5086         estimate D2E/DX2                !
 ! A52   A(24,28,30)           107.5306         estimate D2E/DX2                !
 ! A53   A(24,28,31)           108.8408         estimate D2E/DX2                !
 ! A54   A(29,28,30)           107.6309         estimate D2E/DX2                !
 ! A55   A(29,28,31)           109.2174         estimate D2E/DX2                !
 ! A56   A(30,28,31)           118.2512         estimate D2E/DX2                !
 ! A57   A(28,29,32)           109.7924         estimate D2E/DX2                !
 ! A58   A(28,29,33)           106.0597         estimate D2E/DX2                !
 ! A59   A(28,29,34)           106.8697         estimate D2E/DX2                !
 ! A60   A(32,29,33)           111.7489         estimate D2E/DX2                !
 ! A61   A(32,29,34)           112.4961         estimate D2E/DX2                !
 ! A62   A(33,29,34)           109.5594         estimate D2E/DX2                !
 ! A63   A(29,32,35)           109.2888         estimate D2E/DX2                !
 ! A64   A(29,32,36)           111.793          estimate D2E/DX2                !
 ! A65   A(29,32,37)           109.6071         estimate D2E/DX2                !
 ! A66   A(35,32,36)           110.0757         estimate D2E/DX2                !
 ! A67   A(35,32,37)           107.3928         estimate D2E/DX2                !
 ! A68   A(36,32,37)           108.5794         estimate D2E/DX2                !
 ! A69   A(32,36,38)           108.4858         estimate D2E/DX2                !
 ! A70   A(32,36,39)           111.9194         estimate D2E/DX2                !
 ! A71   A(32,36,40)           108.584          estimate D2E/DX2                !
 ! A72   A(38,36,39)           112.7039         estimate D2E/DX2                !
 ! A73   A(38,36,40)           106.0137         estimate D2E/DX2                !
 ! A74   A(39,36,40)           108.8952         estimate D2E/DX2                !
 ! A75   A(36,38,41)           120.4429         estimate D2E/DX2                !
 ! A76   A(36,38,42)           124.2215         estimate D2E/DX2                !
 ! A77   A(41,38,42)           115.2042         estimate D2E/DX2                !
 ! A78   A(36,39,43)           108.8321         estimate D2E/DX2                !
 ! A79   A(36,39,44)           109.1893         estimate D2E/DX2                !
 ! A80   A(36,39,45)           113.948          estimate D2E/DX2                !
 ! A81   A(43,39,44)           106.4933         estimate D2E/DX2                !
 ! A82   A(43,39,45)           108.6088         estimate D2E/DX2                !
 ! A83   A(44,39,45)           109.5005         estimate D2E/DX2                !
 ! A84   A(38,41,46)            89.0347         estimate D2E/DX2                !
 ! A85   A(38,42,47)           111.7751         estimate D2E/DX2                !
 ! A86   A(39,45,48)           110.1703         estimate D2E/DX2                !
 ! A87   A(39,45,49)           108.8281         estimate D2E/DX2                !
 ! A88   A(39,45,50)           112.1481         estimate D2E/DX2                !
 ! A89   A(48,45,49)           106.321          estimate D2E/DX2                !
 ! A90   A(48,45,50)           109.3509         estimate D2E/DX2                !
 ! A91   A(49,45,50)           109.853          estimate D2E/DX2                !
 ! A92   A(41,46,47)           109.1655         estimate D2E/DX2                !
 ! A93   A(41,46,51)           129.3471         estimate D2E/DX2                !
 ! A94   A(47,46,51)           121.4764         estimate D2E/DX2                !
 ! A95   A(42,47,46)           114.8181         estimate D2E/DX2                !
 ! A96   A(42,47,52)           125.466          estimate D2E/DX2                !
 ! A97   A(46,47,52)           119.7156         estimate D2E/DX2                !
 ! A98   A(45,50,53)           110.8941         estimate D2E/DX2                !
 ! A99   A(45,50,54)           111.3716         estimate D2E/DX2                !
 ! A100  A(45,50,55)           110.9449         estimate D2E/DX2                !
 ! A101  A(53,50,54)           107.8849         estimate D2E/DX2                !
 ! A102  A(53,50,55)           107.6687         estimate D2E/DX2                !
 ! A103  A(54,50,55)           107.9227         estimate D2E/DX2                !
 ! A104  A(46,51,56)           117.9131         estimate D2E/DX2                !
 ! A105  A(46,51,57)           121.1528         estimate D2E/DX2                !
 ! A106  A(56,51,57)           120.934          estimate D2E/DX2                !
 ! A107  A(47,52,58)           118.8297         estimate D2E/DX2                !
 ! A108  A(47,52,59)           119.3955         estimate D2E/DX2                !
 ! A109  A(58,52,59)           121.7737         estimate D2E/DX2                !
 ! A110  A(51,56,58)           121.1728         estimate D2E/DX2                !
 ! A111  A(51,56,60)           119.3282         estimate D2E/DX2                !
 ! A112  A(58,56,60)           119.4961         estimate D2E/DX2                !
 ! A113  A(52,58,56)           120.8726         estimate D2E/DX2                !
 ! A114  A(52,58,61)           119.819          estimate D2E/DX2                !
 ! A115  A(56,58,61)           119.308          estimate D2E/DX2                !
 ! D1    D(6,1,2,3)              0.3505         estimate D2E/DX2                !
 ! D2    D(6,1,2,12)          -178.7498         estimate D2E/DX2                !
 ! D3    D(7,1,2,3)            179.9034         estimate D2E/DX2                !
 ! D4    D(7,1,2,12)             0.8032         estimate D2E/DX2                !
 ! D5    D(2,1,6,5)             -0.2448         estimate D2E/DX2                !
 ! D6    D(2,1,6,10)           179.7357         estimate D2E/DX2                !
 ! D7    D(7,1,6,5)           -179.7858         estimate D2E/DX2                !
 ! D8    D(7,1,6,10)             0.1947         estimate D2E/DX2                !
 ! D9    D(1,2,3,4)             -0.2187         estimate D2E/DX2                !
 ! D10   D(1,2,3,11)          -178.982          estimate D2E/DX2                !
 ! D11   D(12,2,3,4)           178.9742         estimate D2E/DX2                !
 ! D12   D(12,2,3,11)            0.211          estimate D2E/DX2                !
 ! D13   D(1,2,12,13)          179.0202         estimate D2E/DX2                !
 ! D14   D(3,2,12,13)           -0.123          estimate D2E/DX2                !
 ! D15   D(2,3,4,5)             -0.028          estimate D2E/DX2                !
 ! D16   D(2,3,4,8)           -179.6562         estimate D2E/DX2                !
 ! D17   D(11,3,4,5)           178.4784         estimate D2E/DX2                !
 ! D18   D(11,3,4,8)            -1.1498         estimate D2E/DX2                !
 ! D19   D(2,3,11,13)           -0.1758         estimate D2E/DX2                !
 ! D20   D(4,3,11,13)         -178.8205         estimate D2E/DX2                !
 ! D21   D(3,4,5,6)              0.1382         estimate D2E/DX2                !
 ! D22   D(3,4,5,9)           -179.8499         estimate D2E/DX2                !
 ! D23   D(8,4,5,6)            179.7666         estimate D2E/DX2                !
 ! D24   D(8,4,5,9)             -0.2215         estimate D2E/DX2                !
 ! D25   D(4,5,6,1)             -0.0013         estimate D2E/DX2                !
 ! D26   D(4,5,6,10)          -179.9819         estimate D2E/DX2                !
 ! D27   D(9,5,6,1)            179.9868         estimate D2E/DX2                !
 ! D28   D(9,5,6,10)             0.0062         estimate D2E/DX2                !
 ! D29   D(3,11,13,12)           0.1231         estimate D2E/DX2                !
 ! D30   D(3,11,13,14)        -175.5796         estimate D2E/DX2                !
 ! D31   D(2,12,13,11)          -0.0243         estimate D2E/DX2                !
 ! D32   D(2,12,13,14)         175.5537         estimate D2E/DX2                !
 ! D33   D(11,13,14,15)        142.5635         estimate D2E/DX2                !
 ! D34   D(11,13,14,16)         13.5591         estimate D2E/DX2                !
 ! D35   D(11,13,14,17)       -101.8991         estimate D2E/DX2                !
 ! D36   D(12,13,14,15)        -32.9627         estimate D2E/DX2                !
 ! D37   D(12,13,14,16)       -161.9671         estimate D2E/DX2                !
 ! D38   D(12,13,14,17)         82.5746         estimate D2E/DX2                !
 ! D39   D(13,14,17,18)       -169.8278         estimate D2E/DX2                !
 ! D40   D(13,14,17,19)         70.519          estimate D2E/DX2                !
 ! D41   D(13,14,17,20)        -48.1568         estimate D2E/DX2                !
 ! D42   D(15,14,17,18)        -55.1629         estimate D2E/DX2                !
 ! D43   D(15,14,17,19)       -174.816          estimate D2E/DX2                !
 ! D44   D(15,14,17,20)         66.5082         estimate D2E/DX2                !
 ! D45   D(16,14,17,18)         77.0345         estimate D2E/DX2                !
 ! D46   D(16,14,17,19)        -42.6186         estimate D2E/DX2                !
 ! D47   D(16,14,17,20)       -161.2944         estimate D2E/DX2                !
 ! D48   D(14,17,18,21)       -174.1441         estimate D2E/DX2                !
 ! D49   D(14,17,18,22)        -52.8431         estimate D2E/DX2                !
 ! D50   D(14,17,18,23)         63.7983         estimate D2E/DX2                !
 ! D51   D(19,17,18,21)        -58.0994         estimate D2E/DX2                !
 ! D52   D(19,17,18,22)         63.2016         estimate D2E/DX2                !
 ! D53   D(19,17,18,23)        179.8431         estimate D2E/DX2                !
 ! D54   D(20,17,18,21)         67.958          estimate D2E/DX2                !
 ! D55   D(20,17,18,22)       -170.741          estimate D2E/DX2                !
 ! D56   D(20,17,18,23)        -54.0995         estimate D2E/DX2                !
 ! D57   D(17,18,21,24)        119.7555         estimate D2E/DX2                !
 ! D58   D(17,18,21,25)        -57.1066         estimate D2E/DX2                !
 ! D59   D(22,18,21,24)         -0.7225         estimate D2E/DX2                !
 ! D60   D(22,18,21,25)       -177.5847         estimate D2E/DX2                !
 ! D61   D(23,18,21,24)       -119.5911         estimate D2E/DX2                !
 ! D62   D(23,18,21,25)         63.5468         estimate D2E/DX2                !
 ! D63   D(18,21,24,26)        165.4007         estimate D2E/DX2                !
 ! D64   D(18,21,24,27)         39.1976         estimate D2E/DX2                !
 ! D65   D(18,21,24,28)        -74.6004         estimate D2E/DX2                !
 ! D66   D(25,21,24,26)        -17.7347         estimate D2E/DX2                !
 ! D67   D(25,21,24,27)       -143.9379         estimate D2E/DX2                !
 ! D68   D(25,21,24,28)        102.2641         estimate D2E/DX2                !
 ! D69   D(21,24,28,29)        -66.6645         estimate D2E/DX2                !
 ! D70   D(21,24,28,30)         47.5305         estimate D2E/DX2                !
 ! D71   D(21,24,28,31)        176.7493         estimate D2E/DX2                !
 ! D72   D(26,24,28,29)         58.3615         estimate D2E/DX2                !
 ! D73   D(26,24,28,30)        172.5564         estimate D2E/DX2                !
 ! D74   D(26,24,28,31)        -58.2248         estimate D2E/DX2                !
 ! D75   D(27,24,28,29)        172.2241         estimate D2E/DX2                !
 ! D76   D(27,24,28,30)        -73.581          estimate D2E/DX2                !
 ! D77   D(27,24,28,31)         55.6378         estimate D2E/DX2                !
 ! D78   D(24,28,29,32)        174.1449         estimate D2E/DX2                !
 ! D79   D(24,28,29,33)         53.2548         estimate D2E/DX2                !
 ! D80   D(24,28,29,34)        -63.5751         estimate D2E/DX2                !
 ! D81   D(30,28,29,32)         60.0208         estimate D2E/DX2                !
 ! D82   D(30,28,29,33)        -60.8693         estimate D2E/DX2                !
 ! D83   D(30,28,29,34)       -177.6992         estimate D2E/DX2                !
 ! D84   D(31,28,29,32)        -69.5298         estimate D2E/DX2                !
 ! D85   D(31,28,29,33)        169.5801         estimate D2E/DX2                !
 ! D86   D(31,28,29,34)         52.7502         estimate D2E/DX2                !
 ! D87   D(28,29,32,35)         74.8096         estimate D2E/DX2                !
 ! D88   D(28,29,32,36)       -163.0768         estimate D2E/DX2                !
 ! D89   D(28,29,32,37)        -42.6331         estimate D2E/DX2                !
 ! D90   D(33,29,32,35)       -167.7965         estimate D2E/DX2                !
 ! D91   D(33,29,32,36)        -45.6829         estimate D2E/DX2                !
 ! D92   D(33,29,32,37)         74.7608         estimate D2E/DX2                !
 ! D93   D(34,29,32,35)        -44.0622         estimate D2E/DX2                !
 ! D94   D(34,29,32,36)         78.0514         estimate D2E/DX2                !
 ! D95   D(34,29,32,37)       -161.5049         estimate D2E/DX2                !
 ! D96   D(29,32,36,38)         70.5093         estimate D2E/DX2                !
 ! D97   D(29,32,36,39)       -164.5165         estimate D2E/DX2                !
 ! D98   D(29,32,36,40)        -44.2801         estimate D2E/DX2                !
 ! D99   D(35,32,36,38)       -167.8296         estimate D2E/DX2                !
 ! D100  D(35,32,36,39)        -42.8554         estimate D2E/DX2                !
 ! D101  D(35,32,36,40)         77.381          estimate D2E/DX2                !
 ! D102  D(37,32,36,38)        -50.5326         estimate D2E/DX2                !
 ! D103  D(37,32,36,39)         74.4416         estimate D2E/DX2                !
 ! D104  D(37,32,36,40)       -165.322          estimate D2E/DX2                !
 ! D105  D(32,36,38,41)         97.5816         estimate D2E/DX2                !
 ! D106  D(32,36,38,42)        -78.0453         estimate D2E/DX2                !
 ! D107  D(39,36,38,41)        -26.9284         estimate D2E/DX2                !
 ! D108  D(39,36,38,42)        157.4448         estimate D2E/DX2                !
 ! D109  D(40,36,38,41)       -145.9599         estimate D2E/DX2                !
 ! D110  D(40,36,38,42)         38.4133         estimate D2E/DX2                !
 ! D111  D(32,36,39,43)       -167.7198         estimate D2E/DX2                !
 ! D112  D(32,36,39,44)        -51.8515         estimate D2E/DX2                !
 ! D113  D(32,36,39,45)         70.922          estimate D2E/DX2                !
 ! D114  D(38,36,39,43)        -45.115          estimate D2E/DX2                !
 ! D115  D(38,36,39,44)         70.7532         estimate D2E/DX2                !
 ! D116  D(38,36,39,45)       -166.4733         estimate D2E/DX2                !
 ! D117  D(40,36,39,43)         72.2255         estimate D2E/DX2                !
 ! D118  D(40,36,39,44)       -171.9062         estimate D2E/DX2                !
 ! D119  D(40,36,39,45)        -49.1327         estimate D2E/DX2                !
 ! D120  D(36,38,41,46)       -176.3343         estimate D2E/DX2                !
 ! D121  D(42,38,41,46)         -0.3301         estimate D2E/DX2                !
 ! D122  D(36,38,42,47)        175.9347         estimate D2E/DX2                !
 ! D123  D(41,38,42,47)          0.1013         estimate D2E/DX2                !
 ! D124  D(36,39,45,48)        -59.2228         estimate D2E/DX2                !
 ! D125  D(36,39,45,49)         56.9804         estimate D2E/DX2                !
 ! D126  D(36,39,45,50)        178.7282         estimate D2E/DX2                !
 ! D127  D(43,39,45,48)        179.2951         estimate D2E/DX2                !
 ! D128  D(43,39,45,49)        -64.5016         estimate D2E/DX2                !
 ! D129  D(43,39,45,50)         57.2461         estimate D2E/DX2                !
 ! D130  D(44,39,45,48)         63.3804         estimate D2E/DX2                !
 ! D131  D(44,39,45,49)        179.5837         estimate D2E/DX2                !
 ! D132  D(44,39,45,50)        -58.6685         estimate D2E/DX2                !
 ! D133  D(38,41,46,47)          0.4419         estimate D2E/DX2                !
 ! D134  D(38,41,46,51)       -178.3462         estimate D2E/DX2                !
 ! D135  D(38,42,47,46)          0.2652         estimate D2E/DX2                !
 ! D136  D(38,42,47,52)       -179.9585         estimate D2E/DX2                !
 ! D137  D(39,45,50,53)         60.1983         estimate D2E/DX2                !
 ! D138  D(39,45,50,54)       -179.644          estimate D2E/DX2                !
 ! D139  D(39,45,50,55)        -59.4041         estimate D2E/DX2                !
 ! D140  D(48,45,50,53)        -62.3166         estimate D2E/DX2                !
 ! D141  D(48,45,50,54)         57.8411         estimate D2E/DX2                !
 ! D142  D(48,45,50,55)        178.0809         estimate D2E/DX2                !
 ! D143  D(49,45,50,53)       -178.642          estimate D2E/DX2                !
 ! D144  D(49,45,50,54)        -58.4843         estimate D2E/DX2                !
 ! D145  D(49,45,50,55)         61.7555         estimate D2E/DX2                !
 ! D146  D(41,46,47,42)         -0.5005         estimate D2E/DX2                !
 ! D147  D(41,46,47,52)        179.7093         estimate D2E/DX2                !
 ! D148  D(51,46,47,42)        178.4007         estimate D2E/DX2                !
 ! D149  D(51,46,47,52)         -1.3895         estimate D2E/DX2                !
 ! D150  D(41,46,51,56)        179.1804         estimate D2E/DX2                !
 ! D151  D(41,46,51,57)         -0.8386         estimate D2E/DX2                !
 ! D152  D(47,46,51,56)          0.5226         estimate D2E/DX2                !
 ! D153  D(47,46,51,57)       -179.4963         estimate D2E/DX2                !
 ! D154  D(42,47,52,58)       -178.8388         estimate D2E/DX2                !
 ! D155  D(42,47,52,59)          0.7763         estimate D2E/DX2                !
 ! D156  D(46,47,52,58)          0.9274         estimate D2E/DX2                !
 ! D157  D(46,47,52,59)       -179.4576         estimate D2E/DX2                !
 ! D158  D(46,51,56,58)          0.7797         estimate D2E/DX2                !
 ! D159  D(46,51,56,60)       -179.8487         estimate D2E/DX2                !
 ! D160  D(57,51,56,58)       -179.2013         estimate D2E/DX2                !
 ! D161  D(57,51,56,60)          0.1703         estimate D2E/DX2                !
 ! D162  D(47,52,58,56)          0.3506         estimate D2E/DX2                !
 ! D163  D(47,52,58,61)       -179.8825         estimate D2E/DX2                !
 ! D164  D(59,52,58,56)       -179.2549         estimate D2E/DX2                !
 ! D165  D(59,52,58,61)          0.512          estimate D2E/DX2                !
 ! D166  D(51,56,58,52)         -1.2368         estimate D2E/DX2                !
 ! D167  D(51,56,58,61)        178.9951         estimate D2E/DX2                !
 ! D168  D(60,56,58,52)        179.3926         estimate D2E/DX2                !
 ! D169  D(60,56,58,61)         -0.3754         estimate D2E/DX2                !
 --------------------------------------------------------------------------------
 Trust Radius=3.00D-01 FncErr=1.00D-07 GrdErr=1.00D-06 EigMax=2.50D+02 EigMin=1.00D-04
 Number of steps in this run=    358 maximum allowed number of steps=    366.
 GradGradGradGradGradGradGradGradGradGradGradGradGradGradGradGradGradGrad

 Stoichiometry    C24H27N2O4S4(2)
 Framework group  C1[X(C24H27N2O4S4)]
 Deg. of freedom   177
 Full point group                 C1      NOp   1
 Largest Abelian subgroup         C1      NOp   1
 Largest concise Abelian subgroup C1      NOp   1
                         Standard orientation:                         
 ---------------------------------------------------------------------
 Center     Atomic      Atomic             Coordinates (Angstroms)
 Number     Number       Type             X           Y           Z
 ---------------------------------------------------------------------
      1          6           0       -5.552639   -0.713792    0.950819
      2          6           0       -4.536876   -0.173783    0.144580
      3          6           0       -4.183873   -0.808598   -1.068545
      4          6           0       -4.824685   -1.979256   -1.491967
      5          6           0       -5.821491   -2.499124   -0.678771
      6          6           0       -6.183429   -1.873003    0.532306
      7          1           0       -5.816334   -0.217736    1.885102
      8          1           0       -4.546141   -2.469001   -2.425049
      9          1           0       -6.335506   -3.411571   -0.983206
     10          1           0       -6.971536   -2.311290    1.145224
     11         16           0       -2.888068    0.060971   -1.832325
     12          7           0       -3.801216    0.957720    0.436907
     13          6           0       -2.942461    1.169896   -0.490537
     14         16           0       -1.888226    2.623993   -0.503734
     15          8           0       -2.654073    3.714634    0.088599
     16          8           0       -1.393941    2.737416   -1.873840
     17          6           0       -0.515068    2.244956    0.579614
     18          6           0        0.271328    3.544543    0.799194
     19          1           0        0.087309    1.488825    0.056418
     20          1           0       -0.939646    1.837861    1.508403
     21          6           0        1.522363    3.317662    1.577578
     22          1           0        0.516872    3.971183   -0.183998
     23          1           0       -0.386189    4.258482    1.323040
     24          6           0        2.844542    3.639114    1.005400
     25          1           0        1.463773    2.859589    2.566355
     26          1           0        3.660198    3.672313    1.739043
     27          1           0        2.851356    4.568765    0.412562
     28         16           0        3.357632    2.415327   -0.243489
     29          6           0        3.600350    0.907244    0.681281
     30          8           0        2.219295    2.203603   -1.149983
     31          8           0        4.635083    2.836967   -0.821804
     32          6           0        3.895072   -0.242043   -0.274257
     33          1           0        2.669712    0.741700    1.242873
     34          1           0        4.425355    1.092729    1.382916
     35          1           0        4.923548   -0.148502   -0.647931
     36          6           0        3.700528   -1.614401    0.403208
     37          1           0        3.221707   -0.181431   -1.144354
     38          6           0        2.226969   -1.830037    0.631074
     39          6           0        4.346479   -2.746915   -0.402524
     40          1           0        4.161326   -1.580569    1.404210
     41         16           0        1.277615   -2.789082   -0.505418
     42          7           0        1.553270   -1.285528    1.587291
     43          1           0        3.995550   -3.712541   -0.003392
     44          1           0        3.995713   -2.693928   -1.449172
     45          6           0        5.872795   -2.734307   -0.375324
     46          6           0       -0.147975   -2.415395    0.415541
     47          6           0        0.206306   -1.587356    1.502411
     48          1           0        6.251865   -1.783760   -0.781305
     49          1           0        6.210281   -2.779914    0.672977
     50          6           0        6.471259   -3.894374   -1.162823
     51          6           0       -1.467802   -2.834073    0.216078
     52          6           0       -0.785138   -1.145185    2.392428
     53          1           0        6.164434   -3.851657   -2.218518
     54          1           0        7.569145   -3.876619   -1.129602
     55          1           0        6.135814   -4.860150   -0.756406
     56          6           0       -2.430827   -2.400337    1.117946
     57          1           0       -1.734312   -3.480642   -0.621074
     58          6           0       -2.095516   -1.552663    2.190137
     59          1           0       -0.506909   -0.498225    3.225405
     60          1           0       -3.467764   -2.715196    0.985610
     61          1           0       -2.879427   -1.217012    2.871077
 ---------------------------------------------------------------------
 Rotational constants (GHZ):           0.1426590           0.0741829           0.0556233
 Standard basis: 6-31G(d) (6D, 7F)
 There are   580 symmetry adapted cartesian basis functions of A   symmetry.
 There are   580 symmetry adapted basis functions of A   symmetry.
   580 basis functions,  1156 primitive gaussians,   580 cartesian basis functions
   141 alpha electrons      140 beta electrons
       nuclear repulsion energy      4600.9286985086 Hartrees.
 NAtoms=   61 NActive=   61 NUniq=   61 SFac= 1.00D+00 NAtFMM=   60 NAOKFM=T Big=T
 Integral buffers will be    131072 words long.
 Raffenetti 2 integral format.
 Two-electron integral symmetry is turned on.
 One-electron integrals computed using PRISM.
 NBasis=   580 RedAO= T EigKep=  4.47D-04  NBF=   580
 NBsUse=   580 1.00D-06 EigRej= -1.00D+00 NBFU=   580
 ExpMin= 1.17D-01 ExpMax= 2.19D+04 ExpMxC= 3.30D+03 IAcc=3 IRadAn=         5 AccDes= 0.00D+00
 Harris functional with IExCor= 1009 and IRadAn=       5 diagonalized for initial guess.
 HarFok:  IExCor= 1009 AccDes= 0.00D+00 IRadAn=         5 IDoV= 1 UseB2=F ITyADJ=14
 ICtDFT=  3500011 ScaDFX=  1.000000  1.000000  1.000000  1.000000
 FoFCou: FMM=F IPFlag=           0 FMFlag=      100000 FMFlg1=        2001
         NFxFlg=           0 DoJE=T BraDBF=F KetDBF=T FulRan=T
         wScrn=  0.000000 ICntrl=       500 IOpCl=  0 I1Cent=   200000004 NGrid=           0
         NMat0=    1 NMatS0=      1 NMatT0=    0 NMatD0=    1 NMtDS0=    0 NMtDT0=    0
 Petite list used in FoFCou.
 Initial guess <Sx>= 0.0000 <Sy>= 0.0000 <Sz>= 0.5000 <S**2>= 0.7500 S= 0.5000
 Requested convergence on RMS density matrix=1.00D-08 within 128 cycles.
 Requested convergence on MAX density matrix=1.00D-06.
 Requested convergence on             energy=1.00D-06.
 No special actions if energy rises.
 Integral accuracy reduced to 1.0D-05 until final iterations.
 Initial convergence to 1.0D-05 achieved.  Increase integral accuracy.
 SCF Done:  E(UM062X) =  -2933.11936874     A.U. after   17 cycles
            NFock= 17  Conv=0.61D-08     -V/T= 2.0056
 <Sx>= 0.0000 <Sy>= 0.0000 <Sz>= 0.5000 <S**2>= 0.7557 S= 0.5028
 <L.S>=  0.00000000000    
 Annihilation of the first spin contaminant:
 S**2 before annihilation     0.7557,   after     0.7500

 **********************************************************************

            Population analysis using the SCF Density.

 **********************************************************************

 Orbital symmetries:
 Alpha Orbitals:
       Occupied  (A) (A) (A) (A) (A) (A) (A) (A) (A) (A) (A) (A)
                 (A) (A) (A) (A) (A) (A) (A) (A) (A) (A) (A) (A)
                 (A) (A) (A) (A) (A) (A) (A) (A) (A) (A) (A) (A)
                 (A) (A) (A) (A) (A) (A) (A) (A) (A) (A) (A) (A)
                 (A) (A) (A) (A) (A) (A) (A) (A) (A) (A) (A) (A)
                 (A) (A) (A) (A) (A) (A) (A) (A) (A) (A) (A) (A)
                 (A) (A) (A) (A) (A) (A) (A) (A) (A) (A) (A) (A)
                 (A) (A) (A) (A) (A) (A) (A) (A) (A) (A) (A) (A)
                 (A) (A) (A) (A) (A) (A) (A) (A) (A) (A) (A) (A)
                 (A) (A) (A) (A) (A) (A) (A) (A) (A) (A) (A) (A)
                 (A) (A) (A) (A) (A) (A) (A) (A) (A) (A) (A) (A)
                 (A) (A) (A) (A) (A) (A) (A) (A) (A)
       Virtual   (A) (A) (A) (A) (A) (A) (A) (A) (A) (A) (A) (A)
                 (A) (A) (A) (A) (A) (A) (A) (A) (A) (A) (A) (A)
                 (A) (A) (A) (A) (A) (A) (A) (A) (A) (A) (A) (A)
                 (A) (A) (A) (A) (A) (A) (A) (A) (A) (A) (A) (A)
                 (A) (A) (A) (A) (A) (A) (A) (A) (A) (A) (A) (A)
                 (A) (A) (A) (A) (A) (A) (A) (A) (A) (A) (A) (A)
                 (A) (A) (A) (A) (A) (A) (A) (A) (A) (A) (A) (A)
                 (A) (A) (A) (A) (A) (A) (A) (A) (A) (A) (A) (A)
                 (A) (A) (A) (A) (A) (A) (A) (A) (A) (A) (A) (A)
                 (A) (A) (A) (A) (A) (A) (A) (A) (A) (A) (A) (A)
                 (A) (A) (A) (A) (A) (A) (A) (A) (A) (A) (A) (A)
                 (A) (A) (A) (A) (A) (A) (A) (A) (A) (A) (A) (A)
                 (A) (A) (A) (A) (A) (A) (A) (A) (A) (A) (A) (A)
                 (A) (A) (A) (A) (A) (A) (A) (A) (A) (A) (A) (A)
                 (A) (A) (A) (A) (A) (A) (A) (A) (A) (A) (A) (A)
                 (A) (A) (A) (A) (A) (A) (A) (A) (A) (A) (A) (A)
                 (A) (A) (A) (A) (A) (A) (A) (A) (A) (A) (A) (A)
                 (A) (A) (A) (A) (A) (A) (A) (A) (A) (A) (A) (A)
                 (A) (A) (A) (A) (A) (A) (A) (A) (A) (A) (A) (A)
                 (A) (A) (A) (A) (A) (A) (A) (A) (A) (A) (A) (A)
                 (A) (A) (A) (A) (A) (A) (A) (A) (A) (A) (A) (A)
                 (A) (A) (A) (A) (A) (A) (A) (A) (A) (A) (A) (A)
                 (A) (A) (A) (A) (A) (A) (A) (A) (A) (A) (A) (A)
                 (A) (A) (A) (A) (A) (A) (A) (A) (A) (A) (A) (A)
                 (A) (A) (A) (A) (A) (A) (A) (A) (A) (A) (A) (A)
                 (A) (A) (A) (A) (A) (A) (A) (A) (A) (A) (A) (A)
                 (A) (A) (A) (A) (A) (A) (A) (A) (A) (A) (A) (A)
                 (A) (A) (A) (A) (A) (A) (A) (A) (A) (A) (A) (A)
                 (A) (A) (A) (A) (A) (A) (A) (A) (A) (A) (A) (A)
                 (A) (A) (A) (A) (A) (A) (A) (A) (A) (A) (A) (A)
                 (A) (A) (A) (A) (A) (A) (A) (A) (A) (A) (A) (A)
                 (A) (A) (A) (A) (A) (A) (A) (A) (A) (A) (A) (A)
                 (A) (A) (A) (A) (A) (A) (A) (A) (A) (A) (A) (A)
                 (A) (A) (A) (A) (A) (A) (A) (A) (A) (A) (A) (A)
                 (A) (A) (A) (A) (A) (A) (A) (A) (A) (A) (A) (A)
                 (A) (A) (A) (A) (A) (A) (A) (A) (A) (A) (A) (A)
                 (A) (A) (A) (A) (A) (A) (A)
 Beta  Orbitals:
       Occupied  (A) (A) (A) (A) (A) (A) (A) (A) (A) (A) (A) (A)
                 (A) (A) (A) (A) (A) (A) (A) (A) (A) (A) (A) (A)
                 (A) (A) (A) (A) (A) (A) (A) (A) (A) (A) (A) (A)
                 (A) (A) (A) (A) (A) (A) (A) (A) (A) (A) (A) (A)
                 (A) (A) (A) (A) (A) (A) (A) (A) (A) (A) (A) (A)
                 (A) (A) (A) (A) (A) (A) (A) (A) (A) (A) (A) (A)
                 (A) (A) (A) (A) (A) (A) (A) (A) (A) (A) (A) (A)
                 (A) (A) (A) (A) (A) (A) (A) (A) (A) (A) (A) (A)
                 (A) (A) (A) (A) (A) (A) (A) (A) (A) (A) (A) (A)
                 (A) (A) (A) (A) (A) (A) (A) (A) (A) (A) (A) (A)
                 (A) (A) (A) (A) (A) (A) (A) (A) (A) (A) (A) (A)
                 (A) (A) (A) (A) (A) (A) (A) (A)
       Virtual   (A) (A) (A) (A) (A) (A) (A) (A) (A) (A) (A) (A)
                 (A) (A) (A) (A) (A) (A) (A) (A) (A) (A) (A) (A)
                 (A) (A) (A) (A) (A) (A) (A) (A) (A) (A) (A) (A)
                 (A) (A) (A) (A) (A) (A) (A) (A) (A) (A) (A) (A)
                 (A) (A) (A) (A) (A) (A) (A) (A) (A) (A) (A) (A)
                 (A) (A) (A) (A) (A) (A) (A) (A) (A) (A) (A) (A)
                 (A) (A) (A) (A) (A) (A) (A) (A) (A) (A) (A) (A)
                 (A) (A) (A) (A) (A) (A) (A) (A) (A) (A) (A) (A)
                 (A) (A) (A) (A) (A) (A) (A) (A) (A) (A) (A) (A)
                 (A) (A) (A) (A) (A) (A) (A) (A) (A) (A) (A) (A)
                 (A) (A) (A) (A) (A) (A) (A) (A) (A) (A) (A) (A)
                 (A) (A) (A) (A) (A) (A) (A) (A) (A) (A) (A) (A)
                 (A) (A) (A) (A) (A) (A) (A) (A) (A) (A) (A) (A)
                 (A) (A) (A) (A) (A) (A) (A) (A) (A) (A) (A) (A)
                 (A) (A) (A) (A) (A) (A) (A) (A) (A) (A) (A) (A)
                 (A) (A) (A) (A) (A) (A) (A) (A) (A) (A) (A) (A)
                 (A) (A) (A) (A) (A) (A) (A) (A) (A) (A) (A) (A)
                 (A) (A) (A) (A) (A) (A) (A) (A) (A) (A) (A) (A)
                 (A) (A) (A) (A) (A) (A) (A) (A) (A) (A) (A) (A)
                 (A) (A) (A) (A) (A) (A) (A) (A) (A) (A) (A) (A)
                 (A) (A) (A) (A) (A) (A) (A) (A) (A) (A) (A) (A)
                 (A) (A) (A) (A) (A) (A) (A) (A) (A) (A) (A) (A)
                 (A) (A) (A) (A) (A) (A) (A) (A) (A) (A) (A) (A)
                 (A) (A) (A) (A) (A) (A) (A) (A) (A) (A) (A) (A)
                 (A) (A) (A) (A) (A) (A) (A) (A) (A) (A) (A) (A)
                 (A) (A) (A) (A) (A) (A) (A) (A) (A) (A) (A) (A)
                 (A) (A) (A) (A) (A) (A) (A) (A) (A) (A) (A) (A)
                 (A) (A) (A) (A) (A) (A) (A) (A) (A) (A) (A) (A)
                 (A) (A) (A) (A) (A) (A) (A) (A) (A) (A) (A) (A)
                 (A) (A) (A) (A) (A) (A) (A) (A) (A) (A) (A) (A)
                 (A) (A) (A) (A) (A) (A) (A) (A) (A) (A) (A) (A)
                 (A) (A) (A) (A) (A) (A) (A) (A) (A) (A) (A) (A)
                 (A) (A) (A) (A) (A) (A) (A) (A) (A) (A) (A) (A)
                 (A) (A) (A) (A) (A) (A) (A) (A) (A) (A) (A) (A)
                 (A) (A) (A) (A) (A) (A) (A) (A) (A) (A) (A) (A)
                 (A) (A) (A) (A) (A) (A) (A) (A) (A) (A) (A) (A)
                 (A) (A) (A) (A) (A) (A) (A) (A)
 The electronic state is 2-A.
 Alpha  occ. eigenvalues --  -90.13886 -90.12925 -89.97688 -89.96248 -19.62979
 Alpha  occ. eigenvalues --  -19.62938 -19.62730 -19.62661 -14.79271 -14.77642
 Alpha  occ. eigenvalues --  -10.64776 -10.63629 -10.60748 -10.60602 -10.59937
 Alpha  occ. eigenvalues --  -10.59757 -10.59644 -10.59150 -10.59149 -10.58954
 Alpha  occ. eigenvalues --  -10.58559 -10.58349 -10.57851 -10.57675 -10.57480
 Alpha  occ. eigenvalues --  -10.57478 -10.57412 -10.57232 -10.56820 -10.56579
 Alpha  occ. eigenvalues --  -10.56508 -10.56314 -10.55659 -10.54431  -8.45361
 Alpha  occ. eigenvalues --   -8.44530  -8.32205  -8.30870  -6.37507  -6.37482
 Alpha  occ. eigenvalues --   -6.37412  -6.36669  -6.36637  -6.36566  -6.24190
 Alpha  occ. eigenvalues --   -6.23976  -6.23713  -6.22860  -6.22653  -6.22390
 Alpha  occ. eigenvalues --   -1.22429  -1.21766  -1.11390  -1.10765  -1.10347
 Alpha  occ. eigenvalues --   -1.09086  -0.97500  -0.96921  -0.94872  -0.94388
 Alpha  occ. eigenvalues --   -0.91874  -0.90944  -0.90281  -0.89121  -0.86698
 Alpha  occ. eigenvalues --   -0.86029  -0.84791  -0.84376  -0.82064  -0.80814
 Alpha  occ. eigenvalues --   -0.77221  -0.75305  -0.73585  -0.70600  -0.69825
 Alpha  occ. eigenvalues --   -0.69760  -0.69123  -0.68822  -0.67022  -0.66073
 Alpha  occ. eigenvalues --   -0.64912  -0.64283  -0.60031  -0.58816  -0.58194
 Alpha  occ. eigenvalues --   -0.58123  -0.57796  -0.57421  -0.57335  -0.56927
 Alpha  occ. eigenvalues --   -0.56350  -0.55829  -0.54867  -0.54530  -0.53925
 Alpha  occ. eigenvalues --   -0.52638  -0.52281  -0.52008  -0.51872  -0.51443
 Alpha  occ. eigenvalues --   -0.50815  -0.50617  -0.50502  -0.49307  -0.48800
 Alpha  occ. eigenvalues --   -0.48195  -0.47733  -0.47070  -0.46850  -0.46524
 Alpha  occ. eigenvalues --   -0.45473  -0.44655  -0.44401  -0.44175  -0.43863
 Alpha  occ. eigenvalues --   -0.43154  -0.42875  -0.42075  -0.41768  -0.41330
 Alpha  occ. eigenvalues --   -0.41107  -0.40307  -0.39876  -0.39655  -0.39554
 Alpha  occ. eigenvalues --   -0.39256  -0.38822  -0.38381  -0.37905  -0.37833
 Alpha  occ. eigenvalues --   -0.36801  -0.36484  -0.36402  -0.35993  -0.34573
 Alpha  occ. eigenvalues --   -0.34393  -0.31396  -0.30202  -0.29360  -0.29114
 Alpha  occ. eigenvalues --   -0.26548
 Alpha virt. eigenvalues --   -0.03336  -0.01020   0.00914   0.02002   0.04134
 Alpha virt. eigenvalues --    0.04607   0.04814   0.06626   0.08999   0.09662
 Alpha virt. eigenvalues --    0.11040   0.11194   0.12129   0.12510   0.12709
 Alpha virt. eigenvalues --    0.12902   0.13698   0.13935   0.14061   0.14338
 Alpha virt. eigenvalues --    0.14763   0.15019   0.15131   0.15565   0.15986
 Alpha virt. eigenvalues --    0.16606   0.17118   0.17346   0.17776   0.18075
 Alpha virt. eigenvalues --    0.18331   0.19177   0.19589   0.20000   0.20155
 Alpha virt. eigenvalues --    0.20526   0.20671   0.20772   0.21002   0.21440
 Alpha virt. eigenvalues --    0.21807   0.22158   0.22318   0.22722   0.22826
 Alpha virt. eigenvalues --    0.23348   0.24723   0.24872   0.25381   0.26154
 Alpha virt. eigenvalues --    0.26823   0.26933   0.27541   0.28154   0.28584
 Alpha virt. eigenvalues --    0.28794   0.30036   0.30401   0.30915   0.31451
 Alpha virt. eigenvalues --    0.33042   0.33066   0.33525   0.34330   0.34862
 Alpha virt. eigenvalues --    0.36408   0.37078   0.38237   0.38964   0.40374
 Alpha virt. eigenvalues --    0.40425   0.41412   0.41469   0.42399   0.42779
 Alpha virt. eigenvalues --    0.43437   0.44937   0.45512   0.46164   0.47529
 Alpha virt. eigenvalues --    0.48544   0.49139   0.49393   0.50484   0.50965
 Alpha virt. eigenvalues --    0.51825   0.53301   0.53786   0.54617   0.55234
 Alpha virt. eigenvalues --    0.55716   0.56031   0.56536   0.57105   0.57284
 Alpha virt. eigenvalues --    0.58116   0.58623   0.58839   0.59296   0.59954
 Alpha virt. eigenvalues --    0.60539   0.60896   0.61513   0.61993   0.62422
 Alpha virt. eigenvalues --    0.62610   0.62865   0.63293   0.63565   0.63807
 Alpha virt. eigenvalues --    0.64126   0.64847   0.65199   0.65681   0.66326
 Alpha virt. eigenvalues --    0.67373   0.67651   0.68050   0.68158   0.68551
 Alpha virt. eigenvalues --    0.68993   0.69834   0.70232   0.71283   0.71761
 Alpha virt. eigenvalues --    0.72614   0.73009   0.73560   0.74042   0.74833
 Alpha virt. eigenvalues --    0.75251   0.76053   0.76740   0.77031   0.77604
 Alpha virt. eigenvalues --    0.78059   0.78552   0.80156   0.82009   0.82283
 Alpha virt. eigenvalues --    0.83153   0.83514   0.84355   0.84936   0.85675
 Alpha virt. eigenvalues --    0.86033   0.86271   0.86594   0.86888   0.87267
 Alpha virt. eigenvalues --    0.87399   0.87701   0.88458   0.88601   0.88838
 Alpha virt. eigenvalues --    0.89328   0.89374   0.89721   0.89881   0.90363
 Alpha virt. eigenvalues --    0.90650   0.90759   0.91406   0.91669   0.92445
 Alpha virt. eigenvalues --    0.92792   0.92941   0.93427   0.93996   0.94261
 Alpha virt. eigenvalues --    0.94551   0.95383   0.95844   0.96017   0.96213
 Alpha virt. eigenvalues --    0.96911   0.97337   0.97670   0.97697   0.98261
 Alpha virt. eigenvalues --    0.98507   0.99115   0.99590   0.99689   1.00333
 Alpha virt. eigenvalues --    1.00469   1.00905   1.01548   1.02077   1.03017
 Alpha virt. eigenvalues --    1.03336   1.03599   1.04057   1.05148   1.05648
 Alpha virt. eigenvalues --    1.05824   1.07035   1.07515   1.07826   1.08359
 Alpha virt. eigenvalues --    1.09488   1.09962   1.10097   1.10941   1.12203
 Alpha virt. eigenvalues --    1.12735   1.13377   1.14019   1.14506   1.15337
 Alpha virt. eigenvalues --    1.16513   1.16867   1.18002   1.18757   1.19715
 Alpha virt. eigenvalues --    1.20246   1.20769   1.21200   1.22278   1.22713
 Alpha virt. eigenvalues --    1.23735   1.24369   1.24889   1.28040   1.28488
 Alpha virt. eigenvalues --    1.29291   1.29476   1.30291   1.30695   1.31078
 Alpha virt. eigenvalues --    1.31694   1.32354   1.33049   1.34296   1.34679
 Alpha virt. eigenvalues --    1.35556   1.37811   1.38328   1.40675   1.42220
 Alpha virt. eigenvalues --    1.42620   1.43506   1.43971   1.44427   1.45313
 Alpha virt. eigenvalues --    1.46660   1.46907   1.47313   1.47766   1.49543
 Alpha virt. eigenvalues --    1.50739   1.50988   1.51464   1.52642   1.52794
 Alpha virt. eigenvalues --    1.53562   1.54427   1.55840   1.57920   1.59628
 Alpha virt. eigenvalues --    1.60358   1.61207   1.62580   1.63813   1.64788
 Alpha virt. eigenvalues --    1.65218   1.67821   1.68874   1.69541   1.70235
 Alpha virt. eigenvalues --    1.72784   1.74128   1.76530   1.77382   1.78302
 Alpha virt. eigenvalues --    1.78652   1.79641   1.80925   1.82134   1.83098
 Alpha virt. eigenvalues --    1.83999   1.84388   1.85369   1.85599   1.86423
 Alpha virt. eigenvalues --    1.87067   1.87474   1.88048   1.88280   1.89367
 Alpha virt. eigenvalues --    1.89698   1.90465   1.90965   1.91845   1.91999
 Alpha virt. eigenvalues --    1.92980   1.93263   1.93858   1.94519   1.95781
 Alpha virt. eigenvalues --    1.95944   1.97282   1.97853   1.98144   1.98856
 Alpha virt. eigenvalues --    1.99196   1.99566   2.00180   2.00502   2.00915
 Alpha virt. eigenvalues --    2.01611   2.02085   2.02343   2.03800   2.04857
 Alpha virt. eigenvalues --    2.05686   2.05977   2.07204   2.08145   2.08638
 Alpha virt. eigenvalues --    2.09387   2.10860   2.11273   2.12116   2.14570
 Alpha virt. eigenvalues --    2.15315   2.15461   2.15852   2.16366   2.16623
 Alpha virt. eigenvalues --    2.17166   2.17484   2.18012   2.18687   2.19436
 Alpha virt. eigenvalues --    2.21442   2.21909   2.23441   2.24780   2.25464
 Alpha virt. eigenvalues --    2.25721   2.26262   2.27342   2.27888   2.28821
 Alpha virt. eigenvalues --    2.29238   2.31029   2.31654   2.32055   2.32486
 Alpha virt. eigenvalues --    2.34280   2.34961   2.35892   2.37001   2.37871
 Alpha virt. eigenvalues --    2.39431   2.39536   2.40519   2.41940   2.43073
 Alpha virt. eigenvalues --    2.44768   2.44931   2.45516   2.47528   2.50613
 Alpha virt. eigenvalues --    2.50908   2.51588   2.52098   2.52912   2.53483
 Alpha virt. eigenvalues --    2.58368   2.60190   2.60495   2.61500   2.63926
 Alpha virt. eigenvalues --    2.65546   2.66418   2.67217   2.67579   2.67956
 Alpha virt. eigenvalues --    2.69164   2.69493   2.70807   2.73249   2.74114
 Alpha virt. eigenvalues --    2.74506   2.74925   2.75509   2.76041   2.80104
 Alpha virt. eigenvalues --    2.81694   2.82273   2.83021   2.86178   2.88114
 Alpha virt. eigenvalues --    2.89739   2.91599   2.92358   2.94492   3.00541
 Alpha virt. eigenvalues --    3.04412   3.16085   3.19224   3.37882   3.39166
 Alpha virt. eigenvalues --    3.91192   3.93524   3.96027   3.96700   3.98567
 Alpha virt. eigenvalues --    4.00219   4.04581   4.05036   4.10129   4.11428
 Alpha virt. eigenvalues --    4.13452   4.14928   4.15624   4.16767   4.17655
 Alpha virt. eigenvalues --    4.20886   4.22116   4.24303   4.26821   4.28389
 Alpha virt. eigenvalues --    4.30849   4.32376   4.35354   4.37819   4.38500
 Alpha virt. eigenvalues --    4.40692   4.42011   4.45452   4.48792   4.51372
 Alpha virt. eigenvalues --    4.52822   4.65676   4.70602   4.73272
  Beta  occ. eigenvalues --  -90.13880 -90.12837 -89.97687 -89.96248 -19.62971
  Beta  occ. eigenvalues --  -19.62938 -19.62672 -19.62644 -14.79269 -14.77642
  Beta  occ. eigenvalues --  -10.64769 -10.63629 -10.60747 -10.60601 -10.60031
  Beta  occ. eigenvalues --  -10.59757 -10.59643 -10.59083 -10.58940 -10.58557
  Beta  occ. eigenvalues --  -10.58442 -10.58349 -10.57850 -10.57675 -10.57480
  Beta  occ. eigenvalues --  -10.57479 -10.57412 -10.57297 -10.56820 -10.56579
  Beta  occ. eigenvalues --  -10.56508 -10.56314 -10.55659 -10.54431  -8.45358
  Beta  occ. eigenvalues --   -8.44473  -8.32204  -8.30870  -6.37507  -6.37481
  Beta  occ. eigenvalues --   -6.37399  -6.36610  -6.36541  -6.36476  -6.24189
  Beta  occ. eigenvalues --   -6.23975  -6.23712  -6.22860  -6.22653  -6.22390
  Beta  occ. eigenvalues --   -1.22414  -1.21596  -1.11378  -1.10631  -1.10341
  Beta  occ. eigenvalues --   -1.09085  -0.97498  -0.96918  -0.94730  -0.93236
  Beta  occ. eigenvalues --   -0.91864  -0.90876  -0.90209  -0.88796  -0.86623
  Beta  occ. eigenvalues --   -0.85946  -0.84770  -0.84360  -0.81903  -0.80426
  Beta  occ. eigenvalues --   -0.77051  -0.74840  -0.73524  -0.70122  -0.69779
  Beta  occ. eigenvalues --   -0.69727  -0.68997  -0.68304  -0.67014  -0.65370
  Beta  occ. eigenvalues --   -0.64800  -0.64220  -0.59860  -0.58440  -0.58175
  Beta  occ. eigenvalues --   -0.58008  -0.57624  -0.57239  -0.57110  -0.56849
  Beta  occ. eigenvalues --   -0.56139  -0.55734  -0.54717  -0.54313  -0.53781
  Beta  occ. eigenvalues --   -0.52604  -0.52095  -0.51986  -0.51836  -0.51272
  Beta  occ. eigenvalues --   -0.50656  -0.50500  -0.50424  -0.49011  -0.48768
  Beta  occ. eigenvalues --   -0.48024  -0.47723  -0.47040  -0.46513  -0.46160
  Beta  occ. eigenvalues --   -0.44880  -0.44647  -0.44351  -0.44108  -0.43793
  Beta  occ. eigenvalues --   -0.42939  -0.42855  -0.42047  -0.41761  -0.41327
  Beta  occ. eigenvalues --   -0.41094  -0.40282  -0.39815  -0.39641  -0.39522
  Beta  occ. eigenvalues --   -0.38923  -0.38623  -0.38214  -0.37884  -0.37710
  Beta  occ. eigenvalues --   -0.36793  -0.36460  -0.36146  -0.35381  -0.34380
  Beta  occ. eigenvalues --   -0.34227  -0.31381  -0.30198  -0.29354  -0.29112
  Beta virt. eigenvalues --   -0.03995  -0.02743  -0.01019   0.00916   0.02004
  Beta virt. eigenvalues --    0.04147   0.04618   0.04846   0.06633   0.09127
  Beta virt. eigenvalues --    0.09945   0.11198   0.11397   0.12261   0.12679
  Beta virt. eigenvalues --    0.12881   0.13112   0.13874   0.14072   0.14204
  Beta virt. eigenvalues --    0.14457   0.14918   0.15105   0.15253   0.16103
  Beta virt. eigenvalues --    0.16428   0.16811   0.17153   0.17418   0.17934
  Beta virt. eigenvalues --    0.18156   0.18358   0.19209   0.19719   0.20087
  Beta virt. eigenvalues --    0.20212   0.20538   0.20707   0.20800   0.21088
  Beta virt. eigenvalues --    0.21498   0.21854   0.22234   0.22359   0.22827
  Beta virt. eigenvalues --    0.23098   0.23879   0.24882   0.25047   0.25485
  Beta virt. eigenvalues --    0.26282   0.26878   0.27152   0.27637   0.28274
  Beta virt. eigenvalues --    0.28621   0.28870   0.30062   0.30563   0.31414
  Beta virt. eigenvalues --    0.32058   0.33059   0.33219   0.34217   0.34659
  Beta virt. eigenvalues --    0.35006   0.36433   0.37088   0.38258   0.38987
  Beta virt. eigenvalues --    0.40402   0.40440   0.41453   0.41498   0.42591
  Beta virt. eigenvalues --    0.42936   0.43513   0.45120   0.45767   0.46236
  Beta virt. eigenvalues --    0.47631   0.48575   0.49444   0.49859   0.50904
  Beta virt. eigenvalues --    0.51156   0.51877   0.53352   0.54132   0.54858
  Beta virt. eigenvalues --    0.55506   0.55825   0.56100   0.56645   0.57126
  Beta virt. eigenvalues --    0.57304   0.58170   0.58752   0.58880   0.59967
  Beta virt. eigenvalues --    0.60361   0.60915   0.61216   0.61555   0.62544
  Beta virt. eigenvalues --    0.62694   0.62945   0.63105   0.63363   0.63653
  Beta virt. eigenvalues --    0.63982   0.64377   0.64944   0.65297   0.65771
  Beta virt. eigenvalues --    0.66415   0.67428   0.67913   0.68153   0.68550
  Beta virt. eigenvalues --    0.68988   0.69316   0.70082   0.70756   0.71432
  Beta virt. eigenvalues --    0.71823   0.72637   0.73079   0.73779   0.74402
  Beta virt. eigenvalues --    0.75007   0.75392   0.76305   0.76783   0.77138
  Beta virt. eigenvalues --    0.77693   0.78162   0.78858   0.80248   0.82154
  Beta virt. eigenvalues --    0.82331   0.83231   0.83666   0.84395   0.84955
  Beta virt. eigenvalues --    0.85724   0.86153   0.86361   0.86673   0.87058
  Beta virt. eigenvalues --    0.87361   0.87565   0.87711   0.88577   0.88700
  Beta virt. eigenvalues --    0.88941   0.89365   0.89520   0.89841   0.90053
  Beta virt. eigenvalues --    0.90554   0.90744   0.91174   0.91761   0.91879
  Beta virt. eigenvalues --    0.92683   0.92822   0.93059   0.93475   0.94099
  Beta virt. eigenvalues --    0.94401   0.94786   0.95650   0.95996   0.96146
  Beta virt. eigenvalues --    0.96267   0.96952   0.97387   0.97715   0.97745
  Beta virt. eigenvalues --    0.98286   0.98597   0.99159   0.99605   0.99814
  Beta virt. eigenvalues --    1.00385   1.00541   1.00936   1.01640   1.02130
  Beta virt. eigenvalues --    1.03078   1.03383   1.03640   1.04155   1.05211
  Beta virt. eigenvalues --    1.05759   1.05933   1.07091   1.07547   1.07951
  Beta virt. eigenvalues --    1.08464   1.09524   1.10082   1.10175   1.11041
  Beta virt. eigenvalues --    1.12378   1.12767   1.13714   1.14048   1.14646
  Beta virt. eigenvalues --    1.15369   1.16598   1.16904   1.18139   1.18836
  Beta virt. eigenvalues --    1.19784   1.20392   1.20881   1.21421   1.22455
  Beta virt. eigenvalues --    1.22950   1.24017   1.24451   1.25191   1.28109
  Beta virt. eigenvalues --    1.28555   1.29340   1.29552   1.30358   1.30831
  Beta virt. eigenvalues --    1.31125   1.31889   1.32378   1.33156   1.34360
  Beta virt. eigenvalues --    1.34793   1.35696   1.37891   1.38556   1.40989
  Beta virt. eigenvalues --    1.42290   1.42742   1.43543   1.44075   1.45368
  Beta virt. eigenvalues --    1.45787   1.46808   1.46984   1.47359   1.47902
  Beta virt. eigenvalues --    1.50197   1.51014   1.51207   1.51673   1.52646
  Beta virt. eigenvalues --    1.52805   1.54121   1.54505   1.55941   1.58244
  Beta virt. eigenvalues --    1.59653   1.60363   1.61470   1.62643   1.63973
  Beta virt. eigenvalues --    1.64857   1.65348   1.68039   1.69097   1.69695
  Beta virt. eigenvalues --    1.70835   1.73113   1.74264   1.76591   1.77598
  Beta virt. eigenvalues --    1.78606   1.78732   1.79711   1.81456   1.82530
  Beta virt. eigenvalues --    1.83350   1.84113   1.84604   1.85405   1.85852
  Beta virt. eigenvalues --    1.86464   1.87093   1.87645   1.88328   1.88431
  Beta virt. eigenvalues --    1.89423   1.89792   1.90747   1.91060   1.91944
  Beta virt. eigenvalues --    1.92124   1.93239   1.93726   1.94496   1.94821
  Beta virt. eigenvalues --    1.96009   1.96361   1.97672   1.97944   1.98555
  Beta virt. eigenvalues --    1.98954   1.99235   1.99719   2.00501   2.00823
  Beta virt. eigenvalues --    2.01050   2.01699   2.02312   2.02832   2.03953
  Beta virt. eigenvalues --    2.05480   2.06153   2.06854   2.07429   2.08226
  Beta virt. eigenvalues --    2.09439   2.09880   2.10944   2.11429   2.12178
  Beta virt. eigenvalues --    2.14846   2.15337   2.15710   2.15972   2.16392
  Beta virt. eigenvalues --    2.16850   2.17206   2.17623   2.18049   2.18869
  Beta virt. eigenvalues --    2.19948   2.21584   2.21999   2.24399   2.24930
  Beta virt. eigenvalues --    2.25484   2.25761   2.26995   2.27529   2.27920
  Beta virt. eigenvalues --    2.28905   2.29333   2.31050   2.31806   2.32066
  Beta virt. eigenvalues --    2.32522   2.34621   2.35042   2.36071   2.37341
  Beta virt. eigenvalues --    2.38016   2.39534   2.39618   2.40585   2.41991
  Beta virt. eigenvalues --    2.44018   2.44872   2.45280   2.45621   2.47585
  Beta virt. eigenvalues --    2.50632   2.51451   2.52101   2.52694   2.53312
  Beta virt. eigenvalues --    2.54918   2.58393   2.60236   2.60652   2.61985
  Beta virt. eigenvalues --    2.64128   2.65554   2.66520   2.67238   2.67617
  Beta virt. eigenvalues --    2.68006   2.69262   2.70294   2.73242   2.74067
  Beta virt. eigenvalues --    2.74384   2.74756   2.75271   2.75619   2.79114
  Beta virt. eigenvalues --    2.80192   2.81796   2.82429   2.83153   2.86215
  Beta virt. eigenvalues --    2.88135   2.89892   2.91603   2.92369   2.94496
  Beta virt. eigenvalues --    3.00547   3.04415   3.16089   3.19225   3.37883
  Beta virt. eigenvalues --    3.39166   3.91308   3.93596   3.96209   3.97278
  Beta virt. eigenvalues --    3.98604   4.00229   4.04614   4.05211   4.10167
  Beta virt. eigenvalues --    4.11434   4.13460   4.14951   4.15639   4.16877
  Beta virt. eigenvalues --    4.18731   4.21047   4.22243   4.24445   4.26912
  Beta virt. eigenvalues --    4.28407   4.31112   4.32393   4.35468   4.37831
  Beta virt. eigenvalues --    4.38579   4.40815   4.43443   4.45653   4.48843
  Beta virt. eigenvalues --    4.51627   4.53574   4.65689   4.70604   4.73272
          Condensed to atoms (all electrons):
          Atomic-Atomic Spin Densities.
 Mulliken charges and spin densities:
               1          2
     1  C   -0.149770   0.000239
     2  C    0.239969  -0.000072
     3  C   -0.178348   0.000351
     4  C   -0.191039  -0.000107
     5  C   -0.155045   0.000287
     6  C   -0.189564  -0.000096
     7  H    0.192804  -0.000012
     8  H    0.188929   0.000002
     9  H    0.178379  -0.000011
    10  H    0.179149   0.000004
    11  S    0.347766   0.000599
    12  N   -0.409220   0.000866
    13  C   -0.189258   0.002557
    14  S    1.178576   0.005476
    15  O   -0.537715   0.002256
    16  O   -0.546442   0.000195
    17  C   -0.493671   0.028131
    18  C   -0.365185  -0.079879
    19  H    0.245081   0.000334
    20  H    0.215885  -0.001335
    21  C   -0.102344   1.025747
    22  H    0.226416   0.000714
    23  H    0.216715   0.031791
    24  C   -0.562528  -0.103076
    25  H    0.179546  -0.054795
    26  H    0.219824   0.005536
    27  H    0.246413   0.025199
    28  S    1.138173   0.063083
    29  C   -0.515564   0.016781
    30  O   -0.577433   0.005374
    31  O   -0.556048   0.024372
    32  C   -0.318676  -0.001905
    33  H    0.233680   0.000428
    34  H    0.207345  -0.000975
    35  H    0.200868   0.000463
    36  C   -0.172627   0.000869
    37  H    0.211179   0.000247
    38  C    0.078632   0.000008
    39  C   -0.315836   0.000193
    40  H    0.182445  -0.000041
    41  S    0.260938  -0.000013
    42  N   -0.490304   0.000212
    43  H    0.170752   0.000059
    44  H    0.166451  -0.000014
    45  C   -0.301561   0.000009
    46  C   -0.172836   0.000030
    47  C    0.243555  -0.000100
    48  H    0.162571  -0.000021
    49  H    0.155282  -0.000001
    50  C   -0.479882   0.000006
    51  C   -0.189696   0.000004
    52  C   -0.165144  -0.000012
    53  H    0.163228  -0.000000
    54  H    0.168084   0.000001
    55  H    0.159946   0.000001
    56  C   -0.144080   0.000004
    57  H    0.177800  -0.000000
    58  C   -0.179639   0.000029
    59  H    0.173909   0.000013
    60  H    0.167546  -0.000001
    61  H    0.171617  -0.000001
 Sum of Mulliken charges =  -0.00000   1.00000
 Mulliken charges and spin densities with hydrogens summed into heavy atoms:
               1          2
     1  C    0.043034   0.000226
     2  C    0.239969  -0.000072
     3  C   -0.178348   0.000351
     4  C   -0.002110  -0.000105
     5  C    0.023334   0.000276
     6  C   -0.010415  -0.000093
    11  S    0.347766   0.000599
    12  N   -0.409220   0.000866
    13  C   -0.189258   0.002557
    14  S    1.178576   0.005476
    15  O   -0.537715   0.002256
    16  O   -0.546442   0.000195
    17  C   -0.032705   0.027130
    18  C    0.077946  -0.047374
    21  C    0.077201   0.970952
    24  C   -0.096291  -0.072342
    28  S    1.138173   0.063083
    29  C   -0.074540   0.016234
    30  O   -0.577433   0.005374
    31  O   -0.556048   0.024372
    32  C    0.093370  -0.001195
    36  C    0.009818   0.000828
    38  C    0.078632   0.000008
    39  C    0.021367   0.000237
    41  S    0.260938  -0.000013
    42  N   -0.490304   0.000212
    45  C    0.016292  -0.000012
    46  C   -0.172836   0.000030
    47  C    0.243555  -0.000100
    50  C    0.011376   0.000007
    51  C   -0.011896   0.000004
    52  C    0.008765   0.000001
    56  C    0.023466   0.000003
    58  C   -0.008021   0.000028
 Electronic spatial extent (au):  <R**2>=          19267.5047
 Charge=             -0.0000 electrons
 Dipole moment (field-independent basis, Debye):
    X=              0.1882    Y=             -6.8658    Z=              4.7434  Tot=              8.3471
 Quadrupole moment (field-independent basis, Debye-Ang):
   XX=           -210.9706   YY=           -233.8571   ZZ=           -228.2890
   XY=             15.6056   XZ=              9.4428   YZ=             23.4488
 Traceless Quadrupole moment (field-independent basis, Debye-Ang):
   XX=             13.4016   YY=             -9.4849   ZZ=             -3.9168
   XY=             15.6056   XZ=              9.4428   YZ=             23.4488
 Octapole moment (field-independent basis, Debye-Ang**2):
  XXX=            -64.0449  YYY=              4.1224  ZZZ=              1.6390  XYY=             31.9908
  XXY=           -177.2311  XXZ=             55.5541  XZZ=            -13.9364  YZZ=              1.0201
  YYZ=             17.4467  XYZ=             26.9508
 Hexadecapole moment (field-independent basis, Debye-Ang**3):
 XXXX=         -15824.2479 YYYY=          -7703.3529 ZZZZ=          -1869.0437 XXXY=            141.1269
 XXXZ=             12.1914 YYYX=            327.7518 YYYZ=            153.7611 ZZZX=            -26.3942
 ZZZY=             74.0391 XXYY=          -4014.1811 XXZZ=          -2972.0938 YYZZ=          -1638.8895
 XXYZ=            168.8286 YYXZ=            149.0204 ZZXY=             55.7985
 N-N= 4.600928698509D+03 E-N=-1.609895961603D+04  KE= 2.916729800898D+03
                          Isotropic Fermi Contact Couplings
        Atom                 a.u.       MegaHertz       Gauss      10(-4) cm-1
     1  C(13)              0.00005       0.05634       0.02010       0.01879
     2  C(13)              0.00019       0.21659       0.07728       0.07225
     3  C(13)              0.00011       0.11816       0.04216       0.03941
     4  C(13)              0.00000       0.00501       0.00179       0.00167
     5  C(13)              0.00007       0.07701       0.02748       0.02569
     6  C(13)             -0.00002      -0.02240      -0.00799      -0.00747
     7  H(1)              -0.00000      -0.01847      -0.00659      -0.00616
     8  H(1)               0.00000       0.01006       0.00359       0.00335
     9  H(1)              -0.00000      -0.01381      -0.00493      -0.00461
    10  H(1)               0.00000       0.00590       0.00211       0.00197
    11  S(33)              0.00085       0.29138       0.10397       0.09719
    12  N(14)              0.00039       0.12561       0.04482       0.04190
    13  C(13)              0.00459       5.16043       1.84137       1.72133
    14  S(33)              0.01108       3.80562       1.35794       1.26942
    15  O(17)              0.00171      -1.03734      -0.37015      -0.34602
    16  O(17)              0.00001      -0.00782      -0.00279      -0.00261
    17  C(13)              0.04681      52.62503      18.77792      17.55382
    18  C(13)             -0.02929     -32.92689     -11.74913     -10.98323
    19  H(1)              -0.00106      -4.74691      -1.69382      -1.58340
    20  H(1)              -0.00034      -1.52863      -0.54545      -0.50990
    21  C(13)              0.18729     210.54629      75.12815      70.23068
    22  H(1)               0.00022       0.96469       0.34422       0.32179
    23  H(1)               0.02046      91.43877      32.62763      30.50069
    24  C(13)             -0.03907     -43.92366     -15.67305     -14.65135
    25  H(1)              -0.01684     -75.29001     -26.86535     -25.11405
    26  H(1)               0.00256      11.44379       4.08343       3.81724
    27  H(1)               0.01229      54.95588      19.60962      18.33131
    28  S(33)              0.19000      65.25956      23.28623      21.76825
    29  C(13)              0.00302       3.38964       1.20951       1.13066
    30  O(17)              0.00044      -0.26442      -0.09435      -0.08820
    31  O(17)              0.00464      -2.81061      -1.00290      -0.93752
    32  C(13)             -0.00067      -0.75819      -0.27054      -0.25290
    33  H(1)              -0.00056      -2.51839      -0.89863      -0.84005
    34  H(1)              -0.00032      -1.40947      -0.50293      -0.47015
    35  H(1)               0.00017       0.74055       0.26425       0.24702
    36  C(13)              0.00124       1.39274       0.49697       0.46457
    37  H(1)               0.00004       0.16901       0.06031       0.05637
    38  C(13)             -0.00005      -0.05414      -0.01932      -0.01806
    39  C(13)              0.00011       0.12181       0.04346       0.04063
    40  H(1)              -0.00001      -0.02852      -0.01018      -0.00951
    41  S(33)             -0.00000      -0.00111      -0.00040      -0.00037
    42  N(14)             -0.00006      -0.01931      -0.00689      -0.00644
    43  H(1)               0.00003       0.11773       0.04201       0.03927
    44  H(1)              -0.00000      -0.01753      -0.00626      -0.00585
    45  C(13)             -0.00000      -0.00142      -0.00051      -0.00047
    46  C(13)             -0.00000      -0.00523      -0.00187      -0.00175
    47  C(13)             -0.00001      -0.01044      -0.00372      -0.00348
    48  H(1)               0.00000       0.01354       0.00483       0.00452
    49  H(1)              -0.00000      -0.00109      -0.00039      -0.00036
    50  C(13)              0.00001       0.01286       0.00459       0.00429
    51  C(13)             -0.00000      -0.00091      -0.00033      -0.00030
    52  C(13)             -0.00000      -0.00498      -0.00178      -0.00166
    53  H(1)              -0.00000      -0.00040      -0.00014      -0.00013
    54  H(1)               0.00000       0.00096       0.00034       0.00032
    55  H(1)              -0.00000      -0.00066      -0.00024      -0.00022
    56  C(13)              0.00000       0.00362       0.00129       0.00121
    57  H(1)               0.00000       0.00040       0.00014       0.00013
    58  C(13)              0.00000       0.00254       0.00091       0.00085
    59  H(1)              -0.00000      -0.00145      -0.00052      -0.00048
    60  H(1)              -0.00000      -0.00026      -0.00009      -0.00009
    61  H(1)              -0.00000      -0.00073      -0.00026      -0.00024
 --------------------------------------------------------
       Center         ----  Spin Dipole Couplings  ----
                      3XX-RR        3YY-RR        3ZZ-RR
 --------------------------------------------------------
     1   Atom        0.000478     -0.000130     -0.000348
     2   Atom        0.000411      0.000008     -0.000419
     3   Atom        0.000092      0.000134     -0.000226
     4   Atom        0.000155      0.000013     -0.000168
     5   Atom        0.000263     -0.000038     -0.000225
     6   Atom        0.000189     -0.000016     -0.000173
     7   Atom        0.000380     -0.000126     -0.000254
     8   Atom        0.000053      0.000041     -0.000095
     9   Atom        0.000079      0.000043     -0.000122
    10   Atom        0.000150     -0.000013     -0.000137
    11   Atom       -0.001122      0.003307     -0.002185
    12   Atom        0.000702      0.000883     -0.001585
    13   Atom        0.001230      0.001413     -0.002643
    14   Atom        0.006792     -0.008855      0.002063
[...]
 0256987,0.00979017,0.01188581,0.01973185,-0.00000527,-0.00000038,0.000
 00155,-0.00001077,0.00000061,-0.00000456,0.00000592,0.00000287,0.00000
 311,-0.00118433,0.00014089,0.00040222,-0.07471677,-0.03631934,-0.05472
 757,0.00000063,-0.00000033,-0.00000318,0.00000247,-0.00000266,-0.00000
 161,0.00000020,-0.00000131,0.00000081,-0.00519787,-0.00184994,0.000340
 10,0.00016868,0.00012544,-0.00014657,-0.00029548,-0.01486743,-0.025487
 35,0.07142187,0.00001390,-0.00000803,-0.00000804,0.00002516,-0.0000028
 8,-0.00000280,-0.00001143,-0.00001915,-0.00001297,-0.00001756,0.000015
 33,0.00001591,-0.00000800,0.00001026,-0.00000258,0.00000450,-0.0000154
 1,-0.00001877,-0.00000356,0.00001183,0.00000158,0.00000118,-0.00000135
 ,-0.00000070,-0.00000304,-0.00000151,-0.00000074,-0.00000604,-0.000001
 59,0.00000113,-0.00001258,-0.00002495,-0.00000543,-0.00003195,0.000003
 97,-0.00004269,-0.00002507,0.00001795,0.00005475,0.00021912,0.00000291
 ,0.00013985,-0.00006764,0.00002993,-0.00003023,-0.00004665,-0.00000084
 ,-0.00009584,-0.00012087,0.00000691,0.00006115,0.00000946,0.00001699,-
 0.00006202,-0.00001507,0.00000917,0.00000003,0.00007747,-0.00006801,0.
 00001201,-0.00000748,-0.00002399,0.00008854,0.00000358,0.00001996,-0.0
 0000149,0.00000375,-0.00000753,0.00000940,-0.00002782,0.00000671,-0.00
 002719,-0.00001096,0.00001638,-0.00006576,0.00000602,-0.00000299,0.000
 00077,0.00001560,-0.00000107,-0.00001292,-0.00010208,0.00006675,0.0000
 3077,-0.00001450,-0.00003622,0.00000705,0.00004561,-0.00001925,-0.0000
 1324,0.00006745,-0.00001184,-0.00002141,0.00002235,-0.00000532,-0.0000
 0923,-0.00001400,0.00002361,-0.00001181,0.00000464,0.00000411,-0.00000
 156,0.00000542,0.00000521,-0.00000425,0.00000278,0.00011228,-0.0000318
 8,-0.00000492,-0.00000557,0.00000713,0.00010291,-0.00030742,-0.0000394
 8,0.00002179,-0.00000301,-0.00002889,0.00003545,0.00000785,-0.00001372
 ,0.00002172,0.00024016,-0.00019486,0.00014859,-0.00266138,0.00215590,-
 0.00000183,-0.00000449,-0.00000805,-0.00000361,-0.00000175,0.00002503,
 -0.00000850,0.00000546,0.00000019,0.00044939,0.00430533,-0.00281524,-0
 .00345121,0.00003462,-0.00656541,-0.00000199,-0.00000187,0.00000295,0.
 00000634,0.00000221,0.00000552,0.00000155,0.00000259,0.00000107,0.0004
 3599,-0.00024000,0.00044178,-0.03553431,-0.11591215,-0.13102695,-0.000
 00078,-0.00000032,0.00000229,0.00000233,-0.00000083,-0.00000109,-0.000
 00145,-0.00000375,-0.00000131,-0.00228012,0.00625643,-0.00249638,0.000
 14393,-0.00097532,0.00050503,-0.00071777,-0.00031063,-0.00612216,0.040
 14120,0.11274422,-0.00002527,-0.00000098,-0.00000671,-0.00004287,-0.00
 002827,-0.00000426,-0.00000435,0.00002788,0.00003197,-0.00000715,-0.00
 000120,-0.00001029,0.00001573,0.00002585,-0.00000602,0.00000743,0.0000
 3526,0.00000212,0.00000227,-0.00001461,-0.00000065,0.00000410,-0.00000
 022,0.00000499,0.00000597,0.00000037,0.00000004,0.00000609,0.00000136,
 -0.00000006,0.00001492,0.00003137,0.00004554,0.00004713,-0.00000793,0.
 00008294,0.00005954,-0.00003237,-0.00011623,-0.00042589,-0.00007678,-0
 .00024678,0.00012370,-0.00002431,0.00005480,0.00009485,0.00002601,0.00
 016568,0.00022272,0.00002733,-0.00010631,-0.00001212,-0.00001582,0.000
 09943,0.00001470,-0.00002740,-0.00001656,-0.00014417,0.00019506,-0.000
 08393,0.00002814,0.00002336,-0.00011750,-0.00001207,-0.00003721,-0.000
 00309,-0.00000585,0.00000733,-0.00001141,0.00003799,0.00000202,0.00002
 955,0.00003368,0.00005765,0.00007261,-0.00000786,0.00000736,0.00000112
 ,-0.00001973,0.00000145,0.00001878,0.00011181,-0.00007554,-0.00008835,
 0.00004540,0.00004001,-0.00000090,-0.00004495,0.00004019,0.00004889,-0
 .00008895,0.00001271,0.00004402,-0.00000762,-0.00001464,-0.00001316,0.
 00006789,-0.00000533,-0.00005388,-0.00000031,0.00000227,0.00000716,0.0
 0000252,0.00001318,0.00001263,-0.00003944,-0.00010089,0.00005205,-0.00
 000054,-0.00001475,0.00001153,0.00018946,-0.00006293,-0.00053868,0.000
 03887,0.00001522,-0.00004057,0.00003061,0.00000946,0.00001299,0.000187
 08,-0.00024125,-0.00013111,-0.00159281,0.00219385,0.00048141,-0.000014
 09,0.00002370,-0.00000948,0.00000272,-0.00001335,0.00003288,-0.0000132
 7,0.00000115,0.00001424,0.00318507,-0.00260331,0.00033797,-0.00697585,
 -0.01053158,-0.01284679,0.00001274,0.00000575,-0.00000378,0.00001179,-
 0.00000063,0.00000298,0.00000539,0.00000471,0.00000125,0.00050689,0.00
 049617,0.00016628,-0.05444954,-0.13164854,-0.25581909,-0.00000314,-0.0
 0000060,0.00000151,0.00000422,-0.00000199,-0.00000045,-0.00000245,0.00
 000289,-0.00000087,-0.00029244,-0.00271312,0.00315723,-0.00016876,0.00
 049591,-0.00033396,0.00049513,-0.00173902,-0.00004844,0.05914376,0.144
 21333,0.26641778,-0.00016196,0.00087967,-0.00012484,-0.00032883,0.0002
 9749,-0.00004601,-0.00048230,0.00031047,-0.00025789,-0.00021390,0.0007
 0156,-0.00036270,-0.00043802,-0.00000895,-0.00059737,-0.00056373,0.000
 30659,0.00033364,0.00000373,-0.00004106,0.00001095,0.00006669,-0.00007
 615,0.00008337,0.00005107,-0.00004533,0.00003042,0.00003429,-0.0000536
 3,0.00002398,-0.00008246,-0.00018534,0.00019080,-0.00006654,-0.0001177
 8,0.00011901,-0.00006222,-0.00012613,-0.00008163,0.00001875,0.00007819
 ,-0.00002007,0.00000090,-0.00002387,-0.00000266,-0.00001050,-0.0000151
 3,0.00001830,-0.00000256,-0.00001533,0.00000134,-0.00000216,0.00000587
 ,-0.00000080,0.00000346,0.00000270,-0.00000184,-0.00000243,0.00000454,
 0.00000316,0.00000034,-0.00000526,-0.00000179,-0.00000070,-0.00000094,
 0.,0.00000059,-0.00000025,-0.00000009,0.00000102,-0.00000281,0.0000008
 5,-0.00000013,0.00000256,0.00000211,-0.00000081,0.00000115,0.00000007,
 0.00000064,-0.00000070,0.,0.00001795,0.00002852,-0.00000937,0.00000321
 ,-0.00000686,0.00000083,-0.00000631,-0.00001163,0.00000340,-0.00001588
 ,-0.00001219,0.00000572,0.00001115,0.00000872,-0.00000002,0.00000199,0
 .00000432,-0.00000108,0.00000050,-0.00000058,-0.00000061,-0.00000259,0
 .00000036,-0.00000239,0.00000758,0.00003134,-0.00014076,0.00000432,0.0
 0000699,-0.00000457,-0.00016913,0.00030145,0.00063154,-0.00000858,-0.0
 0001887,0.00001024,-0.00004467,-0.00001757,-0.00000051,-0.00045592,-0.
 00045282,-0.00045319,0.00023299,-0.00009059,-0.00032262,0.00000660,-0.
 00000539,0.00000491,0.00000492,0.00000335,-0.00001629,0.00001001,0.000
 00050,-0.00000689,-0.00109808,0.00063139,0.00337847,0.00024833,0.00034
 303,0.00038590,-0.00000305,-0.00000063,-0.00000036,-0.00000625,-0.0000
 0068,-0.00000005,-0.00000387,-0.00000600,-0.00000176,-0.01586630,-0.00
 623494,-0.00524344,0.00151156,-0.00087851,-0.00028657,0.00000159,0.000
 00036,0.00000046,-0.00000395,0.00000237,0.00000120,0.00000172,0.000001
 76,-0.00000027,-0.31896977,-0.07622560,-0.04768179,0.00067525,0.000622
 46,-0.00042186,-0.00149179,-0.00053110,0.00015966,-0.00008680,0.000009
 12,0.00015108,0.33744893,0.00018179,-0.00056017,-0.00035531,0.00021952
 ,-0.00105639,0.00022729,0.00000578,-0.00065934,0.00039919,0.00026937,0
 .00016625,0.00009536,0.00016194,-0.00000346,0.00014903,0.00030899,0.00
 028768,0.00009054,-0.00004329,0.00000827,0.00000966,-0.00004117,0.0000
 2678,-0.00006508,-0.00016716,0.00000373,-0.00007622,-0.00009459,0.0000
 2926,0.00000955,-0.00004530,-0.00000575,0.00002917,-0.00007309,-0.0000
 3601,0.00000837,0.00016409,0.00000379,-0.00004302,-0.00039357,-0.00034
 068,-0.00006871,0.00008721,0.00012832,0.00005304,0.00014162,0.00009595
 ,-0.00000536,0.00004100,0.00006973,-0.00000892,0.00002380,-0.00004669,
 0.00003216,0.00000315,0.00000774,-0.00000441,-0.00001869,0.00002768,-0
 .00000414,-0.00000250,0.00002275,-0.00002494,-0.00000670,-0.00000117,-
 0.00000125,-0.00000836,-0.00000289,-0.00000706,0.00000297,-0.00001538,
 0.00002163,0.00000549,0.00000191,0.00000677,0.00000846,0.00000242,-0.0
 0000080,-0.00000115,-0.00000329,-0.00000326,-0.00005856,0.00006950,-0.
 00004356,0.00000399,-0.00001328,0.00000806,0.00004328,-0.00002217,0.00
 002275,0.00001903,-0.00002332,0.00000695,-0.00007997,-0.00001234,0.000
 00118,0.00000202,0.00001517,-0.00000825,0.00000045,-0.00000470,0.00000
 117,0.00000009,-0.00001964,0.00001245,0.00008701,-0.00024253,0.0002563
 1,-0.00000183,0.00000601,-0.00000058,0.00011628,-0.00011219,-0.0001759
 7,-0.00002146,0.00000292,-0.00001125,0.00007880,0.00001378,-0.00001790
 ,0.00014560,0.00077069,-0.00012300,-0.00016607,-0.00024900,0.00034835,
 0.00000335,-0.00000625,-0.00000237,0.00000295,-0.00000255,0.00000113,0
 .00000638,0.00000271,0.00000944,0.00069939,0.00505947,-0.00368888,0.00
 077039,-0.00061833,-0.00041310,-0.00000266,-0.00000261,0.00000089,0.00
 000079,0.00000099,-0.00000317,-0.00000435,0.00000147,-0.00000344,0.008
 38135,0.00537029,0.00131382,-0.00077072,0.00292396,-0.00517510,0.00000
 122,-0.00000007,0.00000013,-0.00000207,0.00000099,0.00000057,0.0000005
 8,-0.00000175,0.00000073,-0.07525383,-0.06239180,-0.02329713,0.0004608
 9,-0.00317405,0.00227222,-0.01518183,-0.00059426,-0.00118271,-0.000831
 05,0.00000477,-0.00014375,0.08016044,0.05742052,-0.00016566,-0.0004126
 7,-0.00026600,-0.00004233,0.00001566,0.00003076,-0.00023748,0.00068918
 ,-0.00034666,-0.00007649,0.00034337,-0.00081042,-0.00044278,-0.0000770
 9,0.00047681,0.00018679,0.00032929,0.00004307,0.00004611,-0.00008825,-
 0.00002694,-0.00003393,0.00001827,-0.00009834,-0.00001180,-0.00002567,
 -0.00000187,0.00015698,-0.00004846,-0.00004366,0.00005659,0.00001129,-
 0.00000742,0.00000641,-0.00003162,-0.00007496,-0.00000687,0.00002305,0
 .00000493,0.00007874,0.00011054,-0.00001200,-0.00001225,-0.00005061,-0
 .00001354,-0.00003525,-0.00002979,0.00001184,0.00000832,-0.00002498,-0
 .00001373,-0.00001064,0.00001303,0.00000349,0.00000382,-0.00000517,-0.
 00000235,-0.00000642,0.00001503,0.00000137,0.00000722,-0.00000068,-0.0
 0000509,0.00000181,-0.00000494,0.00000074,0.00000143,0.00000210,0.0000
 0040,0.00000312,0.00001064,-0.00000577,0.00000092,0.00000379,0.0000017
 5,-0.00000365,0.00000015,-0.00000023,-0.00000315,0.00000245,0.00000540
 ,0.00004014,-0.00006306,0.00000671,0.00000426,0.00001154,-0.00000558,-
 0.00002481,0.00002435,-0.00000222,-0.00001939,0.00001990,0.00000353,0.
 00006258,-0.00001186,0.00000117,0.00000190,-0.00000911,-0.00000612,0.0
 0000219,0.00000393,-0.00000009,0.00000160,0.00002081,-0.00000678,-0.00
 007074,0.00018543,0.00000102,-0.00000317,-0.00001117,0.00000487,0.0002
 3321,-0.00024144,-0.00055716,0.00002413,0.00002123,0.00000442,0.000010
 27,0.00000755,0.00001279,0.00074413,0.00008230,0.00078331,-0.00032258,
 0.00037088,0.00030104,-0.00001067,0.00001022,-0.00000241,-0.00000759,-
 0.00000002,0.00001814,-0.00001267,-0.00000104,0.00000253,0.00340115,-0
 .00389449,-0.00079894,0.00075105,-0.00027007,-0.00114047,0.00000550,0.
 00000299,-0.00000064,0.00000636,-0.00000048,0.00000206,0.00000565,0.00
 000360,0.00000368,0.02051939,0.00591295,0.00736884,0.00010083,-0.00498
 448,-0.00266750,-0.00000197,-0.00000021,-0.00000033,0.00000393,-0.0000
 0247,-0.00000137,-0.00000157,0.00000024,-0.00000041,-0.04829773,-0.023
 45287,-0.06265153,-0.00077153,0.00221746,-0.00043326,-0.02553723,-0.00
 605853,-0.00022382,-0.00125176,-0.00031636,-0.00009210,0.05087318,0.02
 771759,0.06138258,-0.00035625,0.00001751,-0.00029780,0.00022387,0.0002
 8517,-0.00024672,0.00003402,0.00008477,0.00008860,-0.00016343,-0.00005
 921,0.00000906,0.00004709,-0.00004290,-0.00024387,0.00007364,-0.000173
 82,0.00019528,-0.00017945,0.00024541,0.00006220,-0.00000898,-0.0000039
 6,0.00000254,0.00000112,0.00000861,0.00001626,-0.00001140,-0.00000504,
 0.00000141,-0.00001879,-0.00005459,-0.00001874,-0.00011858,-0.00013164
 ,0.00002490,-0.00007034,-0.00007014,0.00008110,0.00004784,0.00011134,0
 .00007451,0.00000441,-0.00004285,-0.00004274,-0.00001329,-0.00003060,-
 0.00003073,-0.00002512,-0.00003716,0.00004206,0.00000346,0.00001555,-0
 .00002450,0.00000523,0.00001947,-0.00002693,-0.00003900,-0.00000118,0.
 00003147,-0.00001033,-0.00002520,0.00000618,0.00000264,0.00000717,0.00
 000055,0.00000147,-0.00000977,0.00000735,-0.00000270,-0.00001512,0.000
 00234,-0.00000811,0.00000981,0.00000343,0.00000157,0.00000183,0.000001
 13,0.00000540,-0.00000347,-0.00000604,-0.00002117,0.00013541,-0.000010
 50,0.00001030,-0.00002569,0.00001004,0.00001403,-0.00004901,0.00000079
 ,-0.00000273,-0.00004820,0.00000205,-0.00004472,0.00003724,0.00000457,
 0.00001064,0.00004188,0.00000126,-0.00000607,-0.00000502,0.00000106,-0
 .00000929,-0.00002623,0.00000634,0.00003797,0.00007953,0.00012682,0.00
 000604,0.00000627,-0.00000752,-0.00042143,-0.00016775,-0.00036126,-0.0
 0006913,-0.00005634,-0.00001741,-0.00000030,0.00000007,-0.00000001,0.0
 0019696,0.00010315,0.00004658,-0.00090231,0.00054080,0.00137869,0.0000
 0868,-0.00000525,-0.00000114,0.00000017,0.00000592,-0.00000025,0.00001
 473,0.00002586,0.00002421,-0.00042533,-0.00038169,-0.00066672,-0.00332
 522,-0.00309994,-0.00252669,-0.00000286,-0.00000306,-0.00000022,-0.000
 00229,-0.00000076,-0.00000316,-0.00001675,-0.00001031,-0.00000688,0.00
 077048,-0.00154182,-0.00146718,-0.01690681,0.00843798,0.02028089,0.000
 00271,0.00000069,0.00000040,-0.00000914,0.00000646,0.00000394,0.000003
 27,0.00000181,0.00000048,0.00885089,-0.00203114,-0.00570136,0.00038338
 ,-0.00019528,-0.00033389,-0.21562826,0.05051401,0.13588566,0.00095446,
 0.00050448,-0.00050988,0.00028205,0.00066045,0.00007231,0.22682101,0.0
 0012165,0.00013299,0.00029032,0.00012276,0.00015782,0.00003822,0.00009
 393,0.00013872,0.00010466,-0.00000003,-0.00010359,0.00006476,-0.000016
 82,-0.00010967,-0.00005006,0.00005965,-0.00003499,-0.00000977,0.000228
 33,-0.00003855,-0.00005452,-0.00000283,-0.00000580,0.00000119,-0.00000
 457,-0.00000525,-0.00001467,-0.00007911,0.00000283,-0.00000358,0.00000
 472,-0.00011503,-0.00009852,-0.00004946,0.00018514,-0.00034832,-0.0001
 4589,-0.00004311,0.00025152,-0.00007282,-0.00007373,0.00009266,0.00001
 981,0.00003914,-0.00002291,0.00002604,0.00001747,-0.00006139,-0.000011
 76,-0.00000817,0.00004454,0.00000525,-0.00000584,-0.00001917,0.0000001
 0,0.00001377,-0.00001484,-0.00004499,-0.00000621,0.00000665,-0.0000104
 3,0.00000154,-0.00000322,0.00000477,0.00000845,0.00000203,-0.00000239,
 -0.00000719,0.00000453,-0.00000322,-0.00000812,0.00000585,-0.00000372,
 0.00000198,-0.00000023,0.00000522,-0.00000001,0.00000011,0.00000130,-0
 .00000181,-0.00000395,-0.00005831,0.00004015,-0.00000746,0.00000363,-0
 .00001092,-0.00000040,0.00003358,-0.00001339,0.00000404,0.00003064,-0.
 00000963,-0.00000473,-0.00003465,0.00000281,0.00001053,-0.00000229,0.0
 0000463,-0.00000462,0.00000118,-0.00000093,0.00000049,-0.00000237,-0.0
 0001098,-0.00000056,0.00002917,-0.00007809,0.00011142,-0.00000240,0.00
 000318,-0.00000179,-0.00008552,-0.00044350,0.00022635,0.00001959,-0.00
 000978,-0.00000079,0.00001422,0.00000704,-0.00000133,0.00006455,-0.000
 25071,0.00016706,-0.00029573,0.00079305,0.00007823,0.00000339,0.000005
 40,-0.00000282,-0.00000144,-0.00000246,0.00000298,0.00000004,0.0000039
 6,-0.00000837,-0.00069730,-0.00049662,0.00003544,-0.00264187,0.0054863
 6,-0.00359704,0.00000096,-0.00000155,0.00000094,0.00000086,0.00000074,
 0.00000174,0.00000133,0.00000151,-0.00000033,-0.00192239,0.00272791,-0
 .00471674,-0.00665676,0.00556000,0.00618866,-0.00000021,-0.00000015,0.
 00000081,0.00000072,-0.00000041,-0.00000031,-0.00000072,-0.00000130,-0
 .00000023,0.01301061,-0.00073226,-0.00935841,0.00061834,-0.00000594,-0
 .00056690,0.05054452,-0.06113630,-0.05512254,0.00086838,-0.00330348,0.
 00213815,0.00046531,-0.00232342,0.00191681,-0.05355453,0.05406230,-0.0
 0005562,0.00009392,-0.00001095,0.00004790,0.00014012,-0.00028778,0.000
 02793,-0.00003125,-0.00024948,0.00002430,0.00016490,0.00006914,-0.0000
 8806,-0.00000272,0.00008768,-0.00009234,-0.00034388,-0.00006967,-0.000
 22841,0.00017291,0.00015336,0.00002385,-0.00000847,0.00002296,0.000005
 15,0.00002291,0.00002269,0.00000131,0.00001721,0.00000164,-0.00006345,
 0.00007913,0.00022268,-0.00007316,-0.00012664,0.00029682,0.00001184,-0
 .00011959,-0.00035522,0.00040980,0.00033900,-0.00001934,-0.00009576,-0
 .00012905,-0.00003456,-0.00013714,-0.00007928,0.00005766,-0.00002957,-
 0.00006615,-0.00002763,-0.00002640,0.00004455,-0.00000897,-0.00000262,
 -0.00001648,0.00000594,0.00005451,0.00000582,0.00000620,0.00000953,-0.
 00002249,0.00002615,0.00000219,-0.00000755,-0.00000183,0.00000854,0.00
 000485,0.00000527,-0.00000099,0.00002045,-0.00002399,-0.00000518,-0.00
 000142,-0.00000582,-0.00001091,-0.00000236,0.00000124,-0.00000008,0.00
 000443,0.00000525,0.00006606,-0.00010274,0.00004345,-0.00000392,0.0000
 1951,-0.00000774,-0.00005017,0.00003779,-0.00001999,-0.00002189,0.0000
 3380,-0.00000594,0.00003912,-0.00001636,-0.00001527,-0.00000214,-0.000
 01988,0.00000459,-0.00000103,0.00000465,0.00000021,0.00000527,0.000016
 79,-0.00000220,-0.00004160,0.00010177,0.00002380,-0.00000265,-0.000010
 03,0.00000507,-0.00014775,0.00025230,-0.00006006,-0.00001492,0.0000123
 2,0.00000036,0.00001597,0.00000335,-0.00000091,0.00000951,0.00016784,-
 0.00008135,-0.00000076,-0.00020244,0.00045766,-0.00000762,0.00000341,-
 0.00000211,-0.00000234,-0.00000311,0.00000709,-0.00000927,-0.00000373,
 0.00000677,-0.00110609,-0.00000967,-0.00013940,-0.00153199,-0.00352347
 ,0.00227174,0.00000335,0.00000305,-0.00000075,0.00000290,-0.00000019,-
 0.00000017,0.00000284,0.00000269,0.00000227,-0.00192121,-0.00486666,-0
 .00208339,-0.00635763,0.00193279,0.00809259,-0.00000219,-0.00000076,-0
 .00000055,0.00000462,-0.00000146,-0.00000056,-0.00000169,0.00000100,-0
 .00000064,0.02048503,-0.00509193,-0.01196946,0.00106282,-0.00032980,-0
 .00067771,0.13604514,-0.05505700,-0.16877169,0.00004392,0.00233035,-0.
 00066098,-0.00033249,0.00185314,-0.00015750,-0.14594433,0.06230981,0.1
 7385330\\-0.00000109,-0.00000102,0.00000118,0.00000051,0.00000032,-0.0
 0000135,-0.00000138,0.00000015,0.00000123,-0.00000039,-0.00000056,-0.0
 0000025,0.00000084,-0.00000088,-0.00000015,0.00000054,-0.00000032,0.00
 000105,0.00000047,-0.00000122,-0.00000009,-0.00000002,0.00000001,0.000
 00089,0.00000052,-0.00000012,0.00000030,0.00000079,-0.00000101,-0.0000
 0026,0.00000027,0.00000124,0.00000209,-0.00000081,0.00000033,0.0000027
 5,-0.00000114,-0.00000328,-0.00000262,0.00000037,0.00000276,-0.0000000
 8,0.00000046,-0.00000163,0.00000137,-0.00000159,-0.00000050,0.00000187
 ,-0.00000065,0.00000162,0.00000008,-0.00000082,0.00000014,0.00000155,0
 .00000004,0.00000058,0.00000088,-0.00000003,-0.00000144,0.00000074,-0.
 00000175,-0.00000205,0.00000173,-0.00000052,-0.00000028,0.00000103,-0.
 00000036,-0.00000055,0.00000042,0.00000218,-0.00000137,-0.00000126,0.,
 -0.00000018,-0.00000016,-0.00000071,0.00000057,0.00000024,-0.00000083,
 0.00000002,0.00000085,-0.00000242,0.00000099,0.00000024,-0.00000024,-0
 .00000057,0.00000039,-0.00000019,0.00000229,0.00000181,0.00000070,0.00
 000017,0.00000003,-0.00000018,0.00000007,-0.00000148,0.00000062,-0.000
 00043,0.00000045,0.,0.00000051,-0.00000055,-0.00000053,0.00000101,-0.0
 0000023,-0.00000039,-0.00000064,0.00000078,0.00000008,0.00000064,0.000
 00006,-0.00000206,-0.00000006,-0.00000393,0.00000045,-0.00000081,-0.00
 000112,0.00000018,0.00000144,-0.00000092,0.00000279,0.00000215,0.00000
 025,0.00000156,0.00000069,0.00000313,0.00000023,0.00000093,-0.00000138
 ,0.00000009,0.00000086,-0.00000065,0.00000045,0.00000083,-0.00000070,-
 0.00000158,-0.00000031,0.00000093,0.00000007,-0.00000171,-0.00000149,-
 0.00000019,0.00000070,-0.00000067,0.00000017,0.00000051,-0.00000158,0.
 00000067,0.00000059,-0.00000182,0.00000034,-0.00000008,-0.00000093,-0.
 00000049,-0.00000016,0.00000032,0.00000031,0.00000121,-0.00000082,-0.0
 0000033,0.00000100,-0.00000143,0.00000050,0.00000126,-0.00000176,0.000
 00092,-0.00000090,-0.00000014,0.00000023,0.00000012,0.00000026,0.00000
 117,0.00000025,-0.00000003,0.00000049,-0.00000110,-0.00000071,0.000001
 18,-0.00000144,0.00000026,0.00000050,-0.00000132,-0.00000060\\\@
 The archive entry for this job was punched.


 Money is a good servant but a bad master.
                        -- French Proverb
 Job cpu time:       0 days 15 hours 30 minutes 36.1 seconds.
 Elapsed time:       0 days  0 hours 10 minutes 42.6 seconds.
 File lengths (MBytes):  RWF=   4644 Int=      0 D2E=      0 Chk=     40 Scr=      1
 Normal termination of Gaussian 16 at Thu Nov 20 13:35:35 2025.
