 Entering Gaussian System, Link 0=g16
 Initial command:
 /public/software/g16/l1.exe "/tmp/Gau-47792.inp" -scrdir="/tmp/"
 Entering Link 1 = /public/software/g16/l1.exe PID=     47793.
  
 Copyright (c) 1988-2021, Gaussian, Inc.  All Rights Reserved.
  
 This is part of the Gaussian(R) 16 program.  It is based on
 the Gaussian(R) 09 system (copyright 2009, Gaussian, Inc.),
 the Gaussian(R) 03 system (copyright 2003, Gaussian, Inc.),
 the Gaussian(R) 98 system (copyright 1998, Gaussian, Inc.),
 the Gaussian(R) 94 system (copyright 1995, Gaussian, Inc.),
 the Gaussian 92(TM) system (copyright 1992, Gaussian, Inc.),
 the Gaussian 90(TM) system (copyright 1990, Gaussian, Inc.),
 the Gaussian 88(TM) system (copyright 1988, Gaussian, Inc.),
 the Gaussian 86(TM) system (copyright 1986, Carnegie Mellon
 University), and the Gaussian 82(TM) system (copyright 1983,
 Carnegie Mellon University). Gaussian is a federally registered
 trademark of Gaussian, Inc.
  
 This software contains proprietary and confidential information,
 including trade secrets, belonging to Gaussian, Inc.
  
 This software is provided under written license and may be
 used, copied, transmitted, or stored only in accord with that
 written license.
  
 The following legend is applicable only to US Government
 contracts under FAR:
  
                    RESTRICTED RIGHTS LEGEND
  
 Use, reproduction and disclosure by the US Government is
 subject to restrictions as set forth in subparagraphs (a)
 and (c) of the Commercial Computer Software - Restricted
 Rights clause in FAR 52.227-19.
  
 Gaussian, Inc.
 340 Quinnipiac St., Bldg. 40, Wallingford CT 06492
  
  
 ---------------------------------------------------------------
 Warning -- This program may not be used in any manner that
 competes with the business of Gaussian, Inc. or will provide
 assistance to any competitor of Gaussian, Inc.  The licensee
 of this program is prohibited from giving any competitor of
 Gaussian, Inc. access to this program.  By using this program,
 the user acknowledges that Gaussian, Inc. is engaged in the
 business of creating and licensing software in the field of
 computational chemistry and represents and warrants to the
 licensee that it is not a competitor of Gaussian, Inc. and that
 it will not use this program in any manner prohibited above.
 ---------------------------------------------------------------
  

 Cite this work as:
 Gaussian 16, Revision C.02,
 M. J. Frisch, G. W. Trucks, H. B. Schlegel, G. E. Scuseria, 
 M. A. Robb, J. R. Cheeseman, G. Scalmani, V. Barone, 
 G. A. Petersson, H. Nakatsuji, X. Li, M. Caricato, A. V. Marenich, 
 J. Bloino, B. G. Janesko, R. Gomperts, B. Mennucci, H. P. Hratchian, 
 J. V. Ortiz, A. F. Izmaylov, J. L. Sonnenberg, D. Williams-Young, 
 F. Ding, F. Lipparini, F. Egidi, J. Goings, B. Peng, A. Petrone, 
 T. Henderson, D. Ranasinghe, V. G. Zakrzewski, J. Gao, N. Rega, 
 G. Zheng, W. Liang, M. Hada, M. Ehara, K. Toyota, R. Fukuda, 
 J. Hasegawa, M. Ishida, T. Nakajima, Y. Honda, O. Kitao, H. Nakai, 
 T. Vreven, K. Throssell, J. A. Montgomery, Jr., J. E. Peralta, 
 F. Ogliaro, M. J. Bearpark, J. J. Heyd, E. N. Brothers, K. N. Kudin, 
 V. N. Staroverov, T. A. Keith, R. Kobayashi, J. Normand, 
 K. Raghavachari, A. P. Rendell, J. C. Burant, S. S. Iyengar, 
 J. Tomasi, M. Cossi, J. M. Millam, M. Klene, C. Adamo, R. Cammi, 
 J. W. Ochterski, R. L. Martin, K. Morokuma, O. Farkas, 
 J. B. Foresman, and D. J. Fox, Gaussian, Inc., Wallingford CT, 2019.
 
 ******************************************
 Gaussian 16:  ES64L-G16RevC.02  7-Dec-2021
                20-Nov-2025 
 ******************************************
 %nprocshared=96
 Will use up to   96 processors via shared memory.
 %mem=10GB
 %chk=IM6.chk
 -------------------------
 # opt freq 6-31g(d) m062x
 -------------------------
 1/18=20,19=15,26=3,38=1/1,3;
 2/9=110,12=2,17=6,18=5,40=1/2;
 3/5=1,6=6,7=1,11=2,25=1,30=1,71=1,74=-55/1,2,3;
 4//1;
 5/5=2,38=5/2;
 6/7=2,8=2,9=2,10=2,28=1/1;
 7//1,2,3,16;
 1/18=20,19=15,26=3/3(2);
 2/9=110/2;
 99//99;
 2/9=110/2;
 3/5=1,6=6,7=1,11=2,25=1,30=1,71=1,74=-55/1,2,3;
 4/5=5,16=3,69=1/1;
 5/5=2,38=5/2;
 7//1,2,3,16;
 1/18=20,19=15,26=3/3(-5);
 2/9=110/2;
 6/7=2,8=2,9=2,10=2,19=2,28=1/1;
 99/9=1/99;
 -------------------
 Title Card Required
 -------------------
 Symbolic Z-matrix:
 Charge =  0 Multiplicity = 2
 C                    -5.62917  -0.55246   3.10469 
 C                    -4.99707  -0.26798   1.88519 
 C                    -4.57193   1.04988   1.61048 
 C                    -4.76438   2.08724   2.52809 
 C                    -5.39251   1.78434   3.73032 
 C                    -5.82168   0.47572   4.01637 
 H                    -5.95594  -1.57183   3.31215 
 H                    -4.43217   3.1021    2.308 
 H                    -5.5544    2.57606   4.46287 
 H                    -6.31179   0.26847   4.96837 
 S                    -3.83064   1.09437   0.03646 
 N                    -4.73511  -1.18809   0.883 
 C                    -4.14708  -0.6384   -0.12119 
 S                     0.35059  -1.62205  -0.62357 
 O                     1.01188  -2.45768   0.38034 
 O                     0.68522  -1.82275  -2.0383 
 C                    -1.41851  -1.80998  -0.42007 
 C                    -2.20978  -1.24651  -1.58962 
 H                    -1.66132  -1.34069   0.54571 
 H                    -1.54665  -2.89742  -0.31316 
 C                    -3.72536  -1.35528  -1.3731 
 H                    -1.94786  -0.18865  -1.76013 
 H                    -1.93324  -1.78934  -2.50376 
 C                    -4.4908   -0.8414   -2.6004 
 H                    -3.98972  -2.4108   -1.2024 
 H                    -4.19368   0.20357  -2.80036 
 H                    -4.16462  -1.42842  -3.47426 
 C                    -6.00698  -0.92524  -2.45924 
 C                    -6.73287  -0.49706  -3.72927 
 H                    -6.33118  -0.29197  -1.61674 
 H                    -6.28797  -1.95776  -2.19344 
 H                    -7.82311  -0.55552  -3.60744 
 H                    -6.47799   0.53964  -3.9957 
 H                    -6.45244  -1.13818  -4.57827 
 C                     0.67625   0.1083   -0.23329 
 H                    -0.14562   0.70594  -0.65238 
 C                     2.01975   0.53891  -0.8272 
 H                     1.9781    0.374    -1.9138 
 C                     2.24857   2.02895  -0.54057 
 H                     2.29867   2.18221   0.54699 
 H                     1.40227   2.60885  -0.93541 
 H                     0.67281   0.18214   0.86285 
 C                     3.54088   2.52035  -1.17967 
 H                     4.43857   2.05073  -0.7558 
 H                     3.54513   2.42949  -2.27379 
 C                     3.1386   -0.29021  -0.24567 
 C                     4.53756  -1.08634   1.25784 
 C                     4.9421   -1.8823    0.16266 
 C                     5.17217  -1.24207   2.50056 
 C                     5.96637  -2.82806   0.28427 
 C                     6.18571  -2.1801    2.62174 
 H                     4.85662  -0.62562   3.34274 
 C                     6.57975  -2.96638   1.52226 
 H                     6.27257  -3.43757  -0.56627 
 H                     6.68659  -2.31257   3.58145 
 H                     7.38019  -3.6973    1.64353 
 N                     3.51808  -0.19492   0.98108 
 S                     3.98393  -1.46786  -1.22665 
 S                     3.73669   4.30486  -0.84226 
 O                     3.90736   4.4451    0.61685 
 O                     2.61439   4.99143  -1.51075 
 

 GradGradGradGradGradGradGradGradGradGradGradGradGradGradGradGradGradGrad
 Berny optimization.
 Initialization pass.
                           ----------------------------
                           !    Initial Parameters    !
                           ! (Angstroms and Degrees)  !
 --------------------------                            --------------------------
 ! Name  Definition              Value          Derivative Info.                !
 --------------------------------------------------------------------------------
 ! R1    R(1,2)                  1.4027         estimate D2E/DX2                !
 ! R2    R(1,6)                  1.3876         estimate D2E/DX2                !
 ! R3    R(1,7)                  1.0904         estimate D2E/DX2                !
 ! R4    R(2,3)                  1.4117         estimate D2E/DX2                !
 ! R5    R(2,12)                 1.3855         estimate D2E/DX2                !
 ! R6    R(3,4)                  1.3983         estimate D2E/DX2                !
 ! R7    R(3,11)                 1.7404         estimate D2E/DX2                !
 ! R8    R(4,5)                  1.3898         estimate D2E/DX2                !
 ! R9    R(4,8)                  1.0903         estimate D2E/DX2                !
 ! R10   R(5,6)                  1.4066         estimate D2E/DX2                !
 ! R11   R(5,9)                  1.0907         estimate D2E/DX2                !
 ! R12   R(6,10)                 1.0906         estimate D2E/DX2                !
 ! R13   R(11,13)                1.7685         estimate D2E/DX2                !
 ! R14   R(12,13)                1.287          estimate D2E/DX2                !
 ! R15   R(13,21)                1.503          estimate D2E/DX2                !
 ! R16   R(14,15)                1.464          estimate D2E/DX2                !
 ! R17   R(14,16)                1.4676         estimate D2E/DX2                !
 ! R18   R(14,17)                1.7907         estimate D2E/DX2                !
 ! R19   R(14,35)                1.8035         estimate D2E/DX2                !
 ! R20   R(17,18)                1.5203         estimate D2E/DX2                !
 ! R21   R(17,19)                1.1009         estimate D2E/DX2                !
 ! R22   R(17,20)                1.1002         estimate D2E/DX2                !
 ! R23   R(18,21)                1.5348         estimate D2E/DX2                !
 ! R24   R(18,22)                1.1031         estimate D2E/DX2                !
 ! R25   R(18,23)                1.0985         estimate D2E/DX2                !
 ! R26   R(21,24)                1.535          estimate D2E/DX2                !
 ! R27   R(21,25)                1.1014         estimate D2E/DX2                !
 ! R28   R(24,26)                1.1046         estimate D2E/DX2                !
 ! R29   R(24,27)                1.1021         estimate D2E/DX2                !
 ! R30   R(24,28)                1.525          estimate D2E/DX2                !
 ! R31   R(28,29)                1.5242         estimate D2E/DX2                !
 ! R32   R(28,30)                1.1027         estimate D2E/DX2                !
 ! R33   R(28,31)                1.1026         estimate D2E/DX2                !
 ! R34   R(29,32)                1.0986         estimate D2E/DX2                !
 ! R35   R(29,33)                1.1003         estimate D2E/DX2                !
 ! R36   R(29,34)                1.1002         estimate D2E/DX2                !
 ! R37   R(35,36)                1.0992         estimate D2E/DX2                !
 ! R38   R(35,37)                1.5307         estimate D2E/DX2                !
 ! R39   R(35,42)                1.0986         estimate D2E/DX2                !
 ! R40   R(37,38)                1.0998         estimate D2E/DX2                !
 ! R41   R(37,39)                1.5345         estimate D2E/DX2                !
 ! R42   R(37,46)                1.5091         estimate D2E/DX2                !
 ! R43   R(39,40)                1.0994         estimate D2E/DX2                !
 ! R44   R(39,41)                1.0993         estimate D2E/DX2                !
 ! R45   R(39,43)                1.5231         estimate D2E/DX2                !
 ! R46   R(43,44)                1.0982         estimate D2E/DX2                !
 ! R47   R(43,45)                1.0979         estimate D2E/DX2                !
 ! R48   R(43,59)                1.8267         estimate D2E/DX2                !
 ! R49   R(46,57)                1.2876         estimate D2E/DX2                !
 ! R50   R(46,58)                1.7504         estimate D2E/DX2                !
 ! R51   R(47,48)                1.413          estimate D2E/DX2                !
 ! R52   R(47,49)                1.404          estimate D2E/DX2                !
 ! R53   R(47,57)                1.3822         estimate D2E/DX2                !
 ! R54   R(48,50)                1.3994         estimate D2E/DX2                !
 ! R55   R(48,58)                1.7378         estimate D2E/DX2                !
 ! R56   R(49,51)                1.3863         estimate D2E/DX2                !
 ! R57   R(49,52)                1.0903         estimate D2E/DX2                !
 ! R58   R(50,53)                1.3885         estimate D2E/DX2                !
 ! R59   R(50,54)                1.0903         estimate D2E/DX2                !
 ! R60   R(51,53)                1.408          estimate D2E/DX2                !
 ! R61   R(51,55)                1.0906         estimate D2E/DX2                !
 ! R62   R(53,56)                1.0907         estimate D2E/DX2                !
 ! R63   R(59,60)                1.4757         estimate D2E/DX2                !
 ! R64   R(59,61)                1.4757         estimate D2E/DX2                !
 ! A1    A(2,1,6)              118.911          estimate D2E/DX2                !
 ! A2    A(2,1,7)              119.3435         estimate D2E/DX2                !
 ! A3    A(6,1,7)              121.7455         estimate D2E/DX2                !
 ! A4    A(1,2,3)              119.6166         estimate D2E/DX2                !
 ! A5    A(1,2,12)             125.407          estimate D2E/DX2                !
 ! A6    A(3,2,12)             114.9763         estimate D2E/DX2                !
 ! A7    A(2,3,4)              121.5613         estimate D2E/DX2                !
 ! A8    A(2,3,11)             109.1548         estimate D2E/DX2                !
 ! A9    A(4,3,11)             129.2839         estimate D2E/DX2                !
 ! A10   A(3,4,5)              117.9157         estimate D2E/DX2                !
 ! A11   A(3,4,8)              121.0739         estimate D2E/DX2                !
 ! A12   A(5,4,8)              121.0104         estimate D2E/DX2                !
 ! A13   A(4,5,6)              121.1027         estimate D2E/DX2                !
 ! A14   A(4,5,9)              119.3301         estimate D2E/DX2                !
 ! A15   A(6,5,9)              119.5672         estimate D2E/DX2                !
 ! A16   A(1,6,5)              120.8927         estimate D2E/DX2                !
 ! A17   A(1,6,10)             119.6731         estimate D2E/DX2                !
 ! A18   A(5,6,10)             119.4342         estimate D2E/DX2                !
 ! A19   A(3,11,13)             88.8174         estimate D2E/DX2                !
 ! A20   A(2,12,13)            111.5396         estimate D2E/DX2                !
 ! A21   A(11,13,12)           115.5115         estimate D2E/DX2                !
 ! A22   A(11,13,21)           119.4316         estimate D2E/DX2                !
 ! A23   A(12,13,21)           125.0568         estimate D2E/DX2                !
 ! A24   A(15,14,16)           118.6835         estimate D2E/DX2                !
 ! A25   A(15,14,17)           107.9643         estimate D2E/DX2                !
 ! A26   A(15,14,35)           108.5222         estimate D2E/DX2                !
 ! A27   A(16,14,17)           108.6918         estimate D2E/DX2                !
 ! A28   A(16,14,35)           107.3767         estimate D2E/DX2                !
 ! A29   A(17,14,35)           104.7447         estimate D2E/DX2                !
 ! A30   A(14,17,18)           112.8218         estimate D2E/DX2                !
 ! A31   A(14,17,19)           105.8346         estimate D2E/DX2                !
 ! A32   A(14,17,20)           103.2883         estimate D2E/DX2                !
 ! A33   A(18,17,19)           113.7084         estimate D2E/DX2                !
 ! A34   A(18,17,20)           112.3628         estimate D2E/DX2                !
 ! A35   A(19,17,20)           108.0845         estimate D2E/DX2                !
 ! A36   A(17,18,21)           112.2804         estimate D2E/DX2                !
 ! A37   A(17,18,22)           110.534          estimate D2E/DX2                !
 ! A38   A(17,18,23)           109.0254         estimate D2E/DX2                !
 ! A39   A(21,18,22)           108.9199         estimate D2E/DX2                !
 ! A40   A(21,18,23)           109.3265         estimate D2E/DX2                !
 ! A41   A(22,18,23)           106.5873         estimate D2E/DX2                !
 ! A42   A(13,21,18)           111.147          estimate D2E/DX2                !
 ! A43   A(13,21,24)           111.4922         estimate D2E/DX2                !
 ! A44   A(13,21,25)           105.1089         estimate D2E/DX2                !
 ! A45   A(18,21,24)           110.8478         estimate D2E/DX2                !
 ! A46   A(18,21,25)           109.0738         estimate D2E/DX2                !
 ! A47   A(24,21,25)           108.9684         estimate D2E/DX2                !
 ! A48   A(21,24,26)           109.1049         estimate D2E/DX2                !
 ! A49   A(21,24,27)           107.9428         estimate D2E/DX2                !
 ! A50   A(21,24,28)           113.7879         estimate D2E/DX2                !
 ! A51   A(26,24,27)           106.3033         estimate D2E/DX2                !
 ! A52   A(26,24,28)           109.6438         estimate D2E/DX2                !
 ! A53   A(27,24,28)           109.7766         estimate D2E/DX2                !
 ! A54   A(24,28,29)           112.3896         estimate D2E/DX2                !
 ! A55   A(24,28,30)           109.356          estimate D2E/DX2                !
 ! A56   A(24,28,31)           109.0961         estimate D2E/DX2                !
 ! A57   A(29,28,30)           109.5895         estimate D2E/DX2                !
 ! A58   A(29,28,31)           110.0335         estimate D2E/DX2                !
 ! A59   A(30,28,31)           106.1822         estimate D2E/DX2                !
 ! A60   A(28,29,32)           111.4242         estimate D2E/DX2                !
 ! A61   A(28,29,33)           110.8622         estimate D2E/DX2                !
 ! A62   A(28,29,34)           110.9715         estimate D2E/DX2                !
 ! A63   A(32,29,33)           107.8708         estimate D2E/DX2                !
 ! A64   A(32,29,34)           107.9093         estimate D2E/DX2                !
 ! A65   A(33,29,34)           107.6459         estimate D2E/DX2                !
 ! A66   A(14,35,36)           107.7062         estimate D2E/DX2                !
 ! A67   A(14,35,37)           110.1473         estimate D2E/DX2                !
 ! A68   A(14,35,42)           106.2508         estimate D2E/DX2                !
 ! A69   A(36,35,37)           110.8153         estimate D2E/DX2                !
 ! A70   A(36,35,42)           109.9684         estimate D2E/DX2                !
 ! A71   A(37,35,42)           111.7744         estimate D2E/DX2                !
 ! A72   A(35,37,38)           107.933          estimate D2E/DX2                !
 ! A73   A(35,37,39)           109.3638         estimate D2E/DX2                !
 ! A74   A(35,37,46)           110.2826         estimate D2E/DX2                !
 ! A75   A(38,37,39)           109.6197         estimate D2E/DX2                !
 ! A76   A(38,37,46)           109.0508         estimate D2E/DX2                !
 ! A77   A(39,37,46)           110.5454         estimate D2E/DX2                !
 ! A78   A(37,39,40)           109.0813         estimate D2E/DX2                !
 ! A79   A(37,39,41)           109.2897         estimate D2E/DX2                !
 ! A80   A(37,39,43)           111.1869         estimate D2E/DX2                !
 ! A81   A(40,39,41)           108.4723         estimate D2E/DX2                !
 ! A82   A(40,39,43)           109.3556         estimate D2E/DX2                !
 ! A83   A(41,39,43)           109.4082         estimate D2E/DX2                !
 ! A84   A(39,43,44)           113.1805         estimate D2E/DX2                !
 ! A85   A(39,43,45)           113.2495         estimate D2E/DX2                !
 ! A86   A(39,43,59)           109.1851         estimate D2E/DX2                !
 ! A87   A(44,43,45)           110.2481         estimate D2E/DX2                !
 ! A88   A(44,43,59)           105.0009         estimate D2E/DX2                !
 ! A89   A(45,43,59)           105.338          estimate D2E/DX2                !
 ! A90   A(37,46,57)           123.0219         estimate D2E/DX2                !
 ! A91   A(37,46,58)           120.7794         estimate D2E/DX2                !
 ! A92   A(57,46,58)           116.1935         estimate D2E/DX2                !
 ! A93   A(48,47,49)           119.6118         estimate D2E/DX2                !
 ! A94   A(48,47,57)           114.7877         estimate D2E/DX2                !
 ! A95   A(49,47,57)           125.6001         estimate D2E/DX2                !
 ! A96   A(47,48,50)           121.5265         estimate D2E/DX2                !
 ! A97   A(47,48,58)           109.113          estimate D2E/DX2                !
 ! A98   A(50,48,58)           129.3604         estimate D2E/DX2                !
 ! A99   A(47,49,51)           118.8732         estimate D2E/DX2                !
 ! A100  A(47,49,52)           119.3491         estimate D2E/DX2                !
 ! A101  A(51,49,52)           121.7777         estimate D2E/DX2                !
 ! A102  A(48,50,53)           117.9129         estimate D2E/DX2                !
 ! A103  A(48,50,54)           121.0369         estimate D2E/DX2                !
 ! A104  A(53,50,54)           121.0502         estimate D2E/DX2                !
 ! A105  A(49,51,53)           120.9457         estimate D2E/DX2                !
 ! A106  A(49,51,55)           119.6613         estimate D2E/DX2                !
 ! A107  A(53,51,55)           119.393          estimate D2E/DX2                !
 ! A108  A(50,53,51)           121.1298         estimate D2E/DX2                !
 ! A109  A(50,53,56)           119.3454         estimate D2E/DX2                !
 ! A110  A(51,53,56)           119.5248         estimate D2E/DX2                !
 ! A111  A(46,57,47)           111.1249         estimate D2E/DX2                !
 ! A112  A(46,58,48)            88.7785         estimate D2E/DX2                !
 ! A113  A(43,59,60)           106.7305         estimate D2E/DX2                !
 ! A114  A(43,59,61)           106.8169         estimate D2E/DX2                !
 ! A115  A(60,59,61)           119.447          estimate D2E/DX2                !
 ! D1    D(6,1,2,3)             -0.0089         estimate D2E/DX2                !
 ! D2    D(6,1,2,12)           179.8692         estimate D2E/DX2                !
 ! D3    D(7,1,2,3)            179.9853         estimate D2E/DX2                !
 ! D4    D(7,1,2,12)            -0.1366         estimate D2E/DX2                !
 ! D5    D(2,1,6,5)             -0.0262         estimate D2E/DX2                !
 ! D6    D(2,1,6,10)           179.9995         estimate D2E/DX2                !
 ! D7    D(7,1,6,5)            179.9797         estimate D2E/DX2                !
 ! D8    D(7,1,6,10)             0.0054         estimate D2E/DX2                !
 ! D9    D(1,2,3,4)              0.0414         estimate D2E/DX2                !
 ! D10   D(1,2,3,11)          -179.9442         estimate D2E/DX2                !
 ! D11   D(12,2,3,4)          -179.849          estimate D2E/DX2                !
 ! D12   D(12,2,3,11)            0.1653         estimate D2E/DX2                !
 ! D13   D(1,2,12,13)          179.8782         estimate D2E/DX2                !
 ! D14   D(3,2,12,13)           -0.2386         estimate D2E/DX2                !
 ! D15   D(2,3,4,5)             -0.0372         estimate D2E/DX2                !
 ! D16   D(2,3,4,8)            179.954          estimate D2E/DX2                !
 ! D17   D(11,3,4,5)           179.9453         estimate D2E/DX2                !
 ! D18   D(11,3,4,8)            -0.0635         estimate D2E/DX2                !
 ! D19   D(2,3,11,13)           -0.0432         estimate D2E/DX2                !
 ! D20   D(4,3,11,13)          179.9726         estimate D2E/DX2                !
 ! D21   D(3,4,5,6)              0.0015         estimate D2E/DX2                !
 ! D22   D(3,4,5,9)           -179.9995         estimate D2E/DX2                !
 ! D23   D(8,4,5,6)           -179.9897         estimate D2E/DX2                !
 ! D24   D(8,4,5,9)              0.0094         estimate D2E/DX2                !
 ! D25   D(4,5,6,1)              0.0305         estimate D2E/DX2                !
 ! D26   D(4,5,6,10)          -179.9951         estimate D2E/DX2                !
 ! D27   D(9,5,6,1)           -179.9685         estimate D2E/DX2                !
 ! D28   D(9,5,6,10)             0.0059         estimate D2E/DX2                !
 ! D29   D(3,11,13,12)          -0.0933         estimate D2E/DX2                !
 ! D30   D(3,11,13,21)        -179.9493         estimate D2E/DX2                !
 ! D31   D(2,12,13,11)           0.2022         estimate D2E/DX2                !
 ! D32   D(2,12,13,21)        -179.951          estimate D2E/DX2                !
 ! D33   D(11,13,21,18)         59.6181         estimate D2E/DX2                !
 ! D34   D(11,13,21,24)        -64.6044         estimate D2E/DX2                !
 ! D35   D(11,13,21,25)        177.4811         estimate D2E/DX2                !
 ! D36   D(12,13,21,18)       -120.2232         estimate D2E/DX2                !
 ! D37   D(12,13,21,24)        115.5544         estimate D2E/DX2                !
 ! D38   D(12,13,21,25)         -2.3601         estimate D2E/DX2                !
 ! D39   D(15,14,17,18)       -167.052          estimate D2E/DX2                !
 ! D40   D(15,14,17,19)         68.003          estimate D2E/DX2                !
 ! D41   D(15,14,17,20)        -45.483          estimate D2E/DX2                !
 ! D42   D(16,14,17,18)        -37.0841         estimate D2E/DX2                !
 ! D43   D(16,14,17,19)       -162.0291         estimate D2E/DX2                !
 ! D44   D(16,14,17,20)         84.485          estimate D2E/DX2                !
 ! D45   D(35,14,17,18)         77.4388         estimate D2E/DX2                !
 ! D46   D(35,14,17,19)        -47.5062         estimate D2E/DX2                !
 ! D47   D(35,14,17,20)       -160.9921         estimate D2E/DX2                !
 ! D48   D(15,14,35,36)       -154.1455         estimate D2E/DX2                !
 ! D49   D(15,14,35,37)         84.8922         estimate D2E/DX2                !
 ! D50   D(15,14,35,42)        -36.3406         estimate D2E/DX2                !
 ! D51   D(16,14,35,36)         76.4168         estimate D2E/DX2                !
 ! D52   D(16,14,35,37)        -44.5455         estimate D2E/DX2                !
 ! D53   D(16,14,35,42)       -165.7783         estimate D2E/DX2                !
 ! D54   D(17,14,35,36)        -39.0251         estimate D2E/DX2                !
 ! D55   D(17,14,35,37)       -159.9874         estimate D2E/DX2                !
 ! D56   D(17,14,35,42)         78.7798         estimate D2E/DX2                !
 ! D57   D(14,17,18,21)       -177.3495         estimate D2E/DX2                !
 ! D58   D(14,17,18,22)        -55.5026         estimate D2E/DX2                !
 ! D59   D(14,17,18,23)         61.3448         estimate D2E/DX2                !
 ! D60   D(19,17,18,21)        -56.8109         estimate D2E/DX2                !
 ! D61   D(19,17,18,22)         65.036          estimate D2E/DX2                !
 ! D62   D(19,17,18,23)       -178.1166         estimate D2E/DX2                !
 ! D63   D(20,17,18,21)         66.3692         estimate D2E/DX2                !
 ! D64   D(20,17,18,22)       -171.784          estimate D2E/DX2                !
 ! D65   D(20,17,18,23)        -54.9365         estimate D2E/DX2                !
 ! D66   D(17,18,21,13)         58.2042         estimate D2E/DX2                !
 ! D67   D(17,18,21,24)       -177.209          estimate D2E/DX2                !
 ! D68   D(17,18,21,25)        -57.2289         estimate D2E/DX2                !
 ! D69   D(22,18,21,13)        -64.5581         estimate D2E/DX2                !
 ! D70   D(22,18,21,24)         60.0287         estimate D2E/DX2                !
 ! D71   D(22,18,21,25)       -179.9912         estimate D2E/DX2                !
 ! D72   D(23,18,21,13)        179.3371         estimate D2E/DX2                !
 ! D73   D(23,18,21,24)        -56.0761         estimate D2E/DX2                !
 ! D74   D(23,18,21,25)         63.904          estimate D2E/DX2                !
 ! D75   D(13,21,24,26)         66.9057         estimate D2E/DX2                !
 ! D76   D(13,21,24,27)       -177.9793         estimate D2E/DX2                !
 ! D77   D(13,21,24,28)        -55.8787         estimate D2E/DX2                !
 ! D78   D(18,21,24,26)        -57.485          estimate D2E/DX2                !
 ! D79   D(18,21,24,27)         57.63           estimate D2E/DX2                !
 ! D80   D(18,21,24,28)        179.7306         estimate D2E/DX2                !
 ! D81   D(25,21,24,26)       -177.528          estimate D2E/DX2                !
 ! D82   D(25,21,24,27)        -62.413          estimate D2E/DX2                !
 ! D83   D(25,21,24,28)         59.6876         estimate D2E/DX2                !
 ! D84   D(21,24,28,29)       -176.0878         estimate D2E/DX2                !
 ! D85   D(21,24,28,30)         61.9706         estimate D2E/DX2                !
 ! D86   D(21,24,28,31)        -53.7645         estimate D2E/DX2                !
 ! D87   D(26,24,28,29)         61.4237         estimate D2E/DX2                !
 ! D88   D(26,24,28,30)        -60.518          estimate D2E/DX2                !
 ! D89   D(26,24,28,31)       -176.253          estimate D2E/DX2                !
 ! D90   D(27,24,28,29)        -55.0057         estimate D2E/DX2                !
 ! D91   D(27,24,28,30)       -176.9474         estimate D2E/DX2                !
 ! D92   D(27,24,28,31)         67.3176         estimate D2E/DX2                !
 ! D93   D(24,28,29,32)       -179.5273         estimate D2E/DX2                !
 ! D94   D(24,28,29,33)        -59.3737         estimate D2E/DX2                !
 ! D95   D(24,28,29,34)         60.1965         estimate D2E/DX2                !
 ! D96   D(30,28,29,32)        -57.7184         estimate D2E/DX2                !
 ! D97   D(30,28,29,33)         62.4352         estimate D2E/DX2                !
 ! D98   D(30,28,29,34)       -177.9946         estimate D2E/DX2                !
 ! D99   D(31,28,29,32)         58.6814         estimate D2E/DX2                !
 ! D100  D(31,28,29,33)        178.8349         estimate D2E/DX2                !
 ! D101  D(31,28,29,34)        -61.5948         estimate D2E/DX2                !
 ! D102  D(14,35,37,38)         58.2095         estimate D2E/DX2                !
 ! D103  D(14,35,37,39)        177.407          estimate D2E/DX2                !
 ! D104  D(14,35,37,46)        -60.8261         estimate D2E/DX2                !
 ! D105  D(36,35,37,38)        -60.8724         estimate D2E/DX2                !
 ! D106  D(36,35,37,39)         58.3251         estimate D2E/DX2                !
 ! D107  D(36,35,37,46)       -179.908          estimate D2E/DX2                !
 ! D108  D(42,35,37,38)        176.084          estimate D2E/DX2                !
 ! D109  D(42,35,37,39)        -64.7185         estimate D2E/DX2                !
 ! D110  D(42,35,37,46)         57.0484         estimate D2E/DX2                !
 ! D111  D(35,37,39,40)         62.4063         estimate D2E/DX2                !
 ! D112  D(35,37,39,41)        -56.0362         estimate D2E/DX2                !
 ! D113  D(35,37,39,43)       -176.9163         estimate D2E/DX2                !
 ! D114  D(38,37,39,40)       -179.4449         estimate D2E/DX2                !
 ! D115  D(38,37,39,41)         62.1126         estimate D2E/DX2                !
 ! D116  D(38,37,39,43)        -58.7675         estimate D2E/DX2                !
 ! D117  D(46,37,39,40)        -59.2022         estimate D2E/DX2                !
 ! D118  D(46,37,39,41)       -177.6447         estimate D2E/DX2                !
 ! D119  D(46,37,39,43)         61.4752         estimate D2E/DX2                !
 ! D120  D(35,37,46,57)        -69.216          estimate D2E/DX2                !
 ! D121  D(35,37,46,58)        109.9268         estimate D2E/DX2                !
 ! D122  D(38,37,46,57)        172.4313         estimate D2E/DX2                !
 ! D123  D(38,37,46,58)         -8.4259         estimate D2E/DX2                !
 ! D124  D(39,37,46,57)         51.8485         estimate D2E/DX2                !
 ! D125  D(39,37,46,58)       -129.0087         estimate D2E/DX2                !
 ! D126  D(37,39,43,44)        -64.907          estimate D2E/DX2                !
 ! D127  D(37,39,43,45)         61.5143         estimate D2E/DX2                !
 ! D128  D(37,39,43,59)        178.5346         estimate D2E/DX2                !
 ! D129  D(40,39,43,44)         55.6087         estimate D2E/DX2                !
 ! D130  D(40,39,43,45)       -177.97           estimate D2E/DX2                !
 ! D131  D(40,39,43,59)        -60.9497         estimate D2E/DX2                !
 ! D132  D(41,39,43,44)        174.2826         estimate D2E/DX2                !
 ! D133  D(41,39,43,45)        -59.2961         estimate D2E/DX2                !
 ! D134  D(41,39,43,59)         57.7242         estimate D2E/DX2                !
 ! D135  D(39,43,59,60)         65.1097         estimate D2E/DX2                !
 ! D136  D(39,43,59,61)        -63.7292         estimate D2E/DX2                !
 ! D137  D(44,43,59,60)        -56.5394         estimate D2E/DX2                !
 ! D138  D(44,43,59,61)        174.6216         estimate D2E/DX2                !
 ! D139  D(45,43,59,60)       -172.9645         estimate D2E/DX2                !
 ! D140  D(45,43,59,61)         58.1965         estimate D2E/DX2                !
 ! D141  D(37,46,57,47)        178.6369         estimate D2E/DX2                !
 ! D142  D(58,46,57,47)         -0.5423         estimate D2E/DX2                !
 ! D143  D(37,46,58,48)       -178.8382         estimate D2E/DX2                !
 ! D144  D(57,46,58,48)          0.3608         estimate D2E/DX2                !
 ! D145  D(49,47,48,50)         -0.0361         estimate D2E/DX2                !
 ! D146  D(49,47,48,58)        179.9886         estimate D2E/DX2                !
 ! D147  D(57,47,48,50)        179.7585         estimate D2E/DX2                !
 ! D148  D(57,47,48,58)         -0.2168         estimate D2E/DX2                !
 ! D149  D(48,47,49,51)         -0.0464         estimate D2E/DX2                !
 ! D150  D(48,47,49,52)        179.9981         estimate D2E/DX2                !
 ! D151  D(57,47,49,51)       -179.817          estimate D2E/DX2                !
 ! D152  D(57,47,49,52)          0.2275         estimate D2E/DX2                !
 ! D153  D(48,47,57,46)          0.4855         estimate D2E/DX2                !
 ! D154  D(49,47,57,46)       -179.7341         estimate D2E/DX2                !
 ! D155  D(47,48,50,53)          0.0803         estimate D2E/DX2                !
 ! D156  D(47,48,50,54)       -179.9601         estimate D2E/DX2                !
 ! D157  D(58,48,50,53)       -179.9498         estimate D2E/DX2                !
 ! D158  D(58,48,50,54)          0.0098         estimate D2E/DX2                !
 ! D159  D(47,48,58,46)         -0.0631         estimate D2E/DX2                !
 ! D160  D(50,48,58,46)        179.964          estimate D2E/DX2                !
 ! D161  D(47,49,51,53)          0.0831         estimate D2E/DX2                !
 ! D162  D(47,49,51,55)       -179.9271         estimate D2E/DX2                !
 ! D163  D(52,49,51,53)       -179.9626         estimate D2E/DX2                !
 ! D164  D(52,49,51,55)          0.0273         estimate D2E/DX2                !
 ! D165  D(48,50,53,51)         -0.0437         estimate D2E/DX2                !
 ! D166  D(48,50,53,56)        179.9386         estimate D2E/DX2                !
 ! D167  D(54,50,53,51)        179.9968         estimate D2E/DX2                !
 ! D168  D(54,50,53,56)         -0.0209         estimate D2E/DX2                !
 ! D169  D(49,51,53,50)         -0.0382         estimate D2E/DX2                !
 ! D170  D(49,51,53,56)        179.9796         estimate D2E/DX2                !
 ! D171  D(55,51,53,50)        179.9719         estimate D2E/DX2                !
 ! D172  D(55,51,53,56)         -0.0103         estimate D2E/DX2                !
 --------------------------------------------------------------------------------
 Trust Radius=3.00D-01 FncErr=1.00D-07 GrdErr=1.00D-06 EigMax=2.50D+02 EigMin=1.00D-04
 Number of steps in this run=    361 maximum allowed number of steps=    366.
 GradGradGradGradGradGradGradGradGradGradGradGradGradGradGradGradGradGrad

 Stoichiometry    C24H27N2O4S4(2)
 Framework group  C1[X(C24H27N2O4S4)]
 Deg. of freedom   177
 Full point group                 C1      NOp   1
 Largest Abelian subgroup         C1      NOp   1
 Largest concise Abelian subgroup C1      NOp   1
                         Standard orientation:                         
 ---------------------------------------------------------------------
 Center     Atomic      Atomic             Coordinates (Angstroms)
 Number     Number       Type             X           Y           Z
 ---------------------------------------------------------------------
      1          6           0       -5.629167   -0.552455    3.104691
      2          6           0       -4.997065   -0.267983    1.885191
      3          6           0       -4.571930    1.049879    1.610477
      4          6           0       -4.764377    2.087244    2.528094
      5          6           0       -5.392513    1.784335    3.730317
      6          6           0       -5.821676    0.475723    4.016367
      7          1           0       -5.955942   -1.571831    3.312149
      8          1           0       -4.432172    3.102099    2.307995
      9          1           0       -5.554399    2.576056    4.462871
     10          1           0       -6.311793    0.268470    4.968372
     11         16           0       -3.830640    1.094370    0.036458
     12          7           0       -4.735109   -1.188085    0.882996
     13          6           0       -4.147078   -0.638398   -0.121189
     14         16           0        0.350586   -1.622047   -0.623567
     15          8           0        1.011885   -2.457677    0.380335
     16          8           0        0.685220   -1.822746   -2.038296
     17          6           0       -1.418513   -1.809984   -0.420067
     18          6           0       -2.209783   -1.246511   -1.589617
     19          1           0       -1.661317   -1.340693    0.545707
     20          1           0       -1.546650   -2.897424   -0.313155
     21          6           0       -3.725362   -1.355284   -1.373097
     22          1           0       -1.947859   -0.188649   -1.760128
     23          1           0       -1.933241   -1.789336   -2.503764
     24          6           0       -4.490804   -0.841404   -2.600396
     25          1           0       -3.989723   -2.410804   -1.202398
     26          1           0       -4.193683    0.203574   -2.800361
     27          1           0       -4.164624   -1.428417   -3.474259
     28          6           0       -6.006984   -0.925243   -2.459240
     29          6           0       -6.732869   -0.497064   -3.729270
     30          1           0       -6.331176   -0.291969   -1.616742
     31          1           0       -6.287968   -1.957763   -2.193441
     32          1           0       -7.823109   -0.555524   -3.607444
     33          1           0       -6.477989    0.539638   -3.995702
     34          1           0       -6.452445   -1.138177   -4.578268
     35          6           0        0.676254    0.108295   -0.233290
     36          1           0       -0.145617    0.705944   -0.652377
     37          6           0        2.019749    0.538906   -0.827196
     38          1           0        1.978098    0.374001   -1.913804
     39          6           0        2.248573    2.028955   -0.540569
     40          1           0        2.298665    2.182205    0.546985
     41          1           0        1.402272    2.608850   -0.935411
     42          1           0        0.672809    0.182144    0.862852
     43          6           0        3.540878    2.520347   -1.179669
     44          1           0        4.438571    2.050735   -0.755796
     45          1           0        3.545130    2.429486   -2.273787
     46          6           0        3.138602   -0.290207   -0.245674
     47          6           0        4.537556   -1.086336    1.257839
     48          6           0        4.942102   -1.882296    0.162661
     49          6           0        5.172173   -1.242072    2.500561
     50          6           0        5.966365   -2.828059    0.284266
     51          6           0        6.185706   -2.180100    2.621738
     52          1           0        4.856620   -0.625623    3.342742
     53          6           0        6.579751   -2.966378    1.522258
     54          1           0        6.272569   -3.437570   -0.566274
     55          1           0        6.686587   -2.312571    3.581446
     56          1           0        7.380190   -3.697299    1.643526
     57          7           0        3.518081   -0.194921    0.981081
     58         16           0        3.983925   -1.467858   -1.226649
     59         16           0        3.736690    4.304856   -0.842263
     60          8           0        3.907364    4.445100    0.616850
     61          8           0        2.614389    4.991434   -1.510746
 ---------------------------------------------------------------------
 Rotational constants (GHZ):           0.1234017           0.0466027           0.0433811
 Standard basis: 6-31G(d) (6D, 7F)
 There are   580 symmetry adapted cartesian basis functions of A   symmetry.
 There are   580 symmetry adapted basis functions of A   symmetry.
   580 basis functions,  1156 primitive gaussians,   580 cartesian basis functions
   141 alpha electrons      140 beta electrons
       nuclear repulsion energy      4270.4578339648 Hartrees.
 NAtoms=   61 NActive=   61 NUniq=   61 SFac= 1.00D+00 NAtFMM=   60 NAOKFM=T Big=T
 Integral buffers will be    131072 words long.
 Raffenetti 2 integral format.
 Two-electron integral symmetry is turned on.
 One-electron integrals computed using PRISM.
 NBasis=   580 RedAO= T EigKep=  4.60D-04  NBF=   580
 NBsUse=   580 1.00D-06 EigRej= -1.00D+00 NBFU=   580
 ExpMin= 1.17D-01 ExpMax= 2.19D+04 ExpMxC= 3.30D+03 IAcc=3 IRadAn=         5 AccDes= 0.00D+00
 Harris functional with IExCor= 1009 and IRadAn=       5 diagonalized for initial guess.
 HarFok:  IExCor= 1009 AccDes= 0.00D+00 IRadAn=         5 IDoV= 1 UseB2=F ITyADJ=14
 ICtDFT=  3500011 ScaDFX=  1.000000  1.000000  1.000000  1.000000
 FoFCou: FMM=F IPFlag=           0 FMFlag=      100000 FMFlg1=        2001
         NFxFlg=           0 DoJE=T BraDBF=F KetDBF=T FulRan=T
         wScrn=  0.000000 ICntrl=       500 IOpCl=  0 I1Cent=   200000004 NGrid=           0
         NMat0=    1 NMatS0=      1 NMatT0=    0 NMatD0=    1 NMtDS0=    0 NMtDT0=    0
 Petite list used in FoFCou.
 Initial guess <Sx>= 0.0000 <Sy>= 0.0000 <Sz>= 0.5000 <S**2>= 0.7500 S= 0.5000
 Requested convergence on RMS density matrix=1.00D-08 within 128 cycles.
 Requested convergence on MAX density matrix=1.00D-06.
 Requested convergence on             energy=1.00D-06.
 No special actions if energy rises.
 Integral accuracy reduced to 1.0D-05 until final iterations.
 Initial convergence to 1.0D-05 achieved.  Increase integral accuracy.
 SCF Done:  E(UM062X) =  -2933.16324525     A.U. after   19 cycles
            NFock= 19  Conv=0.79D-08     -V/T= 2.0056
 <Sx>= 0.0000 <Sy>= 0.0000 <Sz>= 0.5000 <S**2>= 0.7570 S= 0.5035
 <L.S>=  0.00000000000    
 Annihilation of the first spin contaminant:
 S**2 before annihilation     0.7570,   after     0.7500

 **********************************************************************

            Population analysis using the SCF Density.

 **********************************************************************

 Orbital symmetries:
 Alpha Orbitals:
       Occupied  (A) (A) (A) (A) (A) (A) (A) (A) (A) (A) (A) (A)
                 (A) (A) (A) (A) (A) (A) (A) (A) (A) (A) (A) (A)
                 (A) (A) (A) (A) (A) (A) (A) (A) (A) (A) (A) (A)
                 (A) (A) (A) (A) (A) (A) (A) (A) (A) (A) (A) (A)
                 (A) (A) (A) (A) (A) (A) (A) (A) (A) (A) (A) (A)
                 (A) (A) (A) (A) (A) (A) (A) (A) (A) (A) (A) (A)
                 (A) (A) (A) (A) (A) (A) (A) (A) (A) (A) (A) (A)
                 (A) (A) (A) (A) (A) (A) (A) (A) (A) (A) (A) (A)
                 (A) (A) (A) (A) (A) (A) (A) (A) (A) (A) (A) (A)
                 (A) (A) (A) (A) (A) (A) (A) (A) (A) (A) (A) (A)
                 (A) (A) (A) (A) (A) (A) (A) (A) (A) (A) (A) (A)
                 (A) (A) (A) (A) (A) (A) (A) (A) (A)
       Virtual   (A) (A) (A) (A) (A) (A) (A) (A) (A) (A) (A) (A)
                 (A) (A) (A) (A) (A) (A) (A) (A) (A) (A) (A) (A)
                 (A) (A) (A) (A) (A) (A) (A) (A) (A) (A) (A) (A)
                 (A) (A) (A) (A) (A) (A) (A) (A) (A) (A) (A) (A)
                 (A) (A) (A) (A) (A) (A) (A) (A) (A) (A) (A) (A)
                 (A) (A) (A) (A) (A) (A) (A) (A) (A) (A) (A) (A)
                 (A) (A) (A) (A) (A) (A) (A) (A) (A) (A) (A) (A)
                 (A) (A) (A) (A) (A) (A) (A) (A) (A) (A) (A) (A)
                 (A) (A) (A) (A) (A) (A) (A) (A) (A) (A) (A) (A)
                 (A) (A) (A) (A) (A) (A) (A) (A) (A) (A) (A) (A)
                 (A) (A) (A) (A) (A) (A) (A) (A) (A) (A) (A) (A)
                 (A) (A) (A) (A) (A) (A) (A) (A) (A) (A) (A) (A)
                 (A) (A) (A) (A) (A) (A) (A) (A) (A) (A) (A) (A)
                 (A) (A) (A) (A) (A) (A) (A) (A) (A) (A) (A) (A)
                 (A) (A) (A) (A) (A) (A) (A) (A) (A) (A) (A) (A)
                 (A) (A) (A) (A) (A) (A) (A) (A) (A) (A) (A) (A)
                 (A) (A) (A) (A) (A) (A) (A) (A) (A) (A) (A) (A)
                 (A) (A) (A) (A) (A) (A) (A) (A) (A) (A) (A) (A)
                 (A) (A) (A) (A) (A) (A) (A) (A) (A) (A) (A) (A)
                 (A) (A) (A) (A) (A) (A) (A) (A) (A) (A) (A) (A)
                 (A) (A) (A) (A) (A) (A) (A) (A) (A) (A) (A) (A)
                 (A) (A) (A) (A) (A) (A) (A) (A) (A) (A) (A) (A)
                 (A) (A) (A) (A) (A) (A) (A) (A) (A) (A) (A) (A)
                 (A) (A) (A) (A) (A) (A) (A) (A) (A) (A) (A) (A)
                 (A) (A) (A) (A) (A) (A) (A) (A) (A) (A) (A) (A)
                 (A) (A) (A) (A) (A) (A) (A) (A) (A) (A) (A) (A)
                 (A) (A) (A) (A) (A) (A) (A) (A) (A) (A) (A) (A)
                 (A) (A) (A) (A) (A) (A) (A) (A) (A) (A) (A) (A)
                 (A) (A) (A) (A) (A) (A) (A) (A) (A) (A) (A) (A)
                 (A) (A) (A) (A) (A) (A) (A) (A) (A) (A) (A) (A)
                 (A) (A) (A) (A) (A) (A) (A) (A) (A) (A) (A) (A)
                 (A) (A) (A) (A) (A) (A) (A) (A) (A) (A) (A) (A)
                 (A) (A) (A) (A) (A) (A) (A) (A) (A) (A) (A) (A)
                 (A) (A) (A) (A) (A) (A) (A) (A) (A) (A) (A) (A)
                 (A) (A) (A) (A) (A) (A) (A) (A) (A) (A) (A) (A)
                 (A) (A) (A) (A) (A) (A) (A) (A) (A) (A) (A) (A)
                 (A) (A) (A) (A) (A) (A) (A)
 Beta  Orbitals:
       Occupied  (A) (A) (A) (A) (A) (A) (A) (A) (A) (A) (A) (A)
                 (A) (A) (A) (A) (A) (A) (A) (A) (A) (A) (A) (A)
                 (A) (A) (A) (A) (A) (A) (A) (A) (A) (A) (A) (A)
                 (A) (A) (A) (A) (A) (A) (A) (A) (A) (A) (A) (A)
                 (A) (A) (A) (A) (A) (A) (A) (A) (A) (A) (A) (A)
                 (A) (A) (A) (A) (A) (A) (A) (A) (A) (A) (A) (A)
                 (A) (A) (A) (A) (A) (A) (A) (A) (A) (A) (A) (A)
                 (A) (A) (A) (A) (A) (A) (A) (A) (A) (A) (A) (A)
                 (A) (A) (A) (A) (A) (A) (A) (A) (A) (A) (A) (A)
                 (A) (A) (A) (A) (A) (A) (A) (A) (A) (A) (A) (A)
                 (A) (A) (A) (A) (A) (A) (A) (A) (A) (A) (A) (A)
                 (A) (A) (A) (A) (A) (A) (A) (A)
       Virtual   (A) (A) (A) (A) (A) (A) (A) (A) (A) (A) (A) (A)
                 (A) (A) (A) (A) (A) (A) (A) (A) (A) (A) (A) (A)
                 (A) (A) (A) (A) (A) (A) (A) (A) (A) (A) (A) (A)
                 (A) (A) (A) (A) (A) (A) (A) (A) (A) (A) (A) (A)
                 (A) (A) (A) (A) (A) (A) (A) (A) (A) (A) (A) (A)
                 (A) (A) (A) (A) (A) (A) (A) (A) (A) (A) (A) (A)
                 (A) (A) (A) (A) (A) (A) (A) (A) (A) (A) (A) (A)
                 (A) (A) (A) (A) (A) (A) (A) (A) (A) (A) (A) (A)
                 (A) (A) (A) (A) (A) (A) (A) (A) (A) (A) (A) (A)
                 (A) (A) (A) (A) (A) (A) (A) (A) (A) (A) (A) (A)
                 (A) (A) (A) (A) (A) (A) (A) (A) (A) (A) (A) (A)
                 (A) (A) (A) (A) (A) (A) (A) (A) (A) (A) (A) (A)
                 (A) (A) (A) (A) (A) (A) (A) (A) (A) (A) (A) (A)
                 (A) (A) (A) (A) (A) (A) (A) (A) (A) (A) (A) (A)
                 (A) (A) (A) (A) (A) (A) (A) (A) (A) (A) (A) (A)
                 (A) (A) (A) (A) (A) (A) (A) (A) (A) (A) (A) (A)
                 (A) (A) (A) (A) (A) (A) (A) (A) (A) (A) (A) (A)
                 (A) (A) (A) (A) (A) (A) (A) (A) (A) (A) (A) (A)
                 (A) (A) (A) (A) (A) (A) (A) (A) (A) (A) (A) (A)
                 (A) (A) (A) (A) (A) (A) (A) (A) (A) (A) (A) (A)
                 (A) (A) (A) (A) (A) (A) (A) (A) (A) (A) (A) (A)
                 (A) (A) (A) (A) (A) (A) (A) (A) (A) (A) (A) (A)
                 (A) (A) (A) (A) (A) (A) (A) (A) (A) (A) (A) (A)
                 (A) (A) (A) (A) (A) (A) (A) (A) (A) (A) (A) (A)
                 (A) (A) (A) (A) (A) (A) (A) (A) (A) (A) (A) (A)
                 (A) (A) (A) (A) (A) (A) (A) (A) (A) (A) (A) (A)
                 (A) (A) (A) (A) (A) (A) (A) (A) (A) (A) (A) (A)
                 (A) (A) (A) (A) (A) (A) (A) (A) (A) (A) (A) (A)
                 (A) (A) (A) (A) (A) (A) (A) (A) (A) (A) (A) (A)
                 (A) (A) (A) (A) (A) (A) (A) (A) (A) (A) (A) (A)
                 (A) (A) (A) (A) (A) (A) (A) (A) (A) (A) (A) (A)
                 (A) (A) (A) (A) (A) (A) (A) (A) (A) (A) (A) (A)
                 (A) (A) (A) (A) (A) (A) (A) (A) (A) (A) (A) (A)
                 (A) (A) (A) (A) (A) (A) (A) (A) (A) (A) (A) (A)
                 (A) (A) (A) (A) (A) (A) (A) (A) (A) (A) (A) (A)
                 (A) (A) (A) (A) (A) (A) (A) (A) (A) (A) (A) (A)
                 (A) (A) (A) (A) (A) (A) (A) (A)
 The electronic state is 2-A.
 Alpha  occ. eigenvalues --  -90.13825 -90.10981 -89.96491 -89.95579 -19.66398
 Alpha  occ. eigenvalues --  -19.66353 -19.63426 -19.63016 -14.77639 -14.76912
 Alpha  occ. eigenvalues --  -10.63580 -10.62954 -10.61363 -10.60417 -10.60295
 Alpha  occ. eigenvalues --  -10.59920 -10.59913 -10.59599 -10.58866 -10.58725
 Alpha  occ. eigenvalues --  -10.58687 -10.58567 -10.58282 -10.57433 -10.56749
 Alpha  occ. eigenvalues --  -10.56641 -10.56505 -10.56455 -10.56338 -10.55872
 Alpha  occ. eigenvalues --  -10.55743 -10.55580 -10.55168 -10.54189  -8.45364
 Alpha  occ. eigenvalues --   -8.43314  -8.31099  -8.30169  -6.37499  -6.37452
 Alpha  occ. eigenvalues --   -6.37435  -6.35493  -6.35295  -6.35190  -6.23095
 Alpha  occ. eigenvalues --   -6.22892  -6.22623  -6.22158  -6.21949  -6.21686
 Alpha  occ. eigenvalues --   -1.23272  -1.22437  -1.13652  -1.11400  -1.09069
 Alpha  occ. eigenvalues --   -1.08502  -0.97153  -0.96990  -0.95198  -0.94765
 Alpha  occ. eigenvalues --   -0.91344  -0.90457  -0.90128  -0.89505  -0.86525
 Alpha  occ. eigenvalues --   -0.84651  -0.83997  -0.82985  -0.82034  -0.80824
 Alpha  occ. eigenvalues --   -0.77158  -0.74555  -0.73804  -0.70368  -0.69233
 Alpha  occ. eigenvalues --   -0.69139  -0.68915  -0.68014  -0.67761  -0.67035
 Alpha  occ. eigenvalues --   -0.64166  -0.63843  -0.60230  -0.59485  -0.59303
 Alpha  occ. eigenvalues --   -0.58330  -0.57394  -0.57090  -0.56366  -0.56122
 Alpha  occ. eigenvalues --   -0.55927  -0.55382  -0.55121  -0.54583  -0.54171
 Alpha  occ. eigenvalues --   -0.53421  -0.52648  -0.52213  -0.51698  -0.51441
 Alpha  occ. eigenvalues --   -0.50992  -0.50602  -0.50168  -0.49172  -0.48602
 Alpha  occ. eigenvalues --   -0.48477  -0.47597  -0.47338  -0.47071  -0.46764
 Alpha  occ. eigenvalues --   -0.45864  -0.44812  -0.44655  -0.44005  -0.43636
 Alpha  occ. eigenvalues --   -0.43588  -0.42784  -0.42390  -0.42290  -0.42014
 Alpha  occ. eigenvalues --   -0.40974  -0.40712  -0.40425  -0.40347  -0.40079
 Alpha  occ. eigenvalues --   -0.39729  -0.39513  -0.39359  -0.39106  -0.38608
 Alpha  occ. eigenvalues --   -0.37162  -0.36723  -0.36041  -0.35046  -0.34828
 Alpha  occ. eigenvalues --   -0.34251  -0.30867  -0.29688  -0.29389  -0.28821
 Alpha  occ. eigenvalues --   -0.28271
 Alpha virt. eigenvalues --   -0.01016  -0.00472   0.01951   0.03023   0.03775
 Alpha virt. eigenvalues --    0.04873   0.06706   0.06906   0.08184   0.09036
 Alpha virt. eigenvalues --    0.10159   0.10896   0.11619   0.11815   0.12119
 Alpha virt. eigenvalues --    0.12598   0.12717   0.13536   0.13681   0.13838
 Alpha virt. eigenvalues --    0.13995   0.14124   0.14832   0.15708   0.16226
 Alpha virt. eigenvalues --    0.16781   0.17298   0.17450   0.17991   0.18347
 Alpha virt. eigenvalues --    0.18916   0.19565   0.19696   0.19950   0.20694
 Alpha virt. eigenvalues --    0.20866   0.21104   0.21392   0.21993   0.22118
 Alpha virt. eigenvalues --    0.22210   0.22419   0.22665   0.22835   0.23121
 Alpha virt. eigenvalues --    0.23757   0.24089   0.24182   0.24934   0.25577
 Alpha virt. eigenvalues --    0.26603   0.27336   0.27622   0.28111   0.29045
 Alpha virt. eigenvalues --    0.29480   0.30207   0.30593   0.31273   0.31859
 Alpha virt. eigenvalues --    0.32232   0.32951   0.33345   0.34628   0.35495
 Alpha virt. eigenvalues --    0.36163   0.37434   0.38053   0.39001   0.39699
 Alpha virt. eigenvalues --    0.40838   0.41215   0.41454   0.41980   0.42977
 Alpha virt. eigenvalues --    0.43391   0.43848   0.44281   0.46230   0.46580
 Alpha virt. eigenvalues --    0.47381   0.49903   0.50729   0.52145   0.52402
 Alpha virt. eigenvalues --    0.53062   0.53806   0.54563   0.55160   0.55676
 Alpha virt. eigenvalues --    0.56074   0.56386   0.57272   0.57454   0.57851
 Alpha virt. eigenvalues --    0.58486   0.58612   0.58747   0.59302   0.59438
 Alpha virt. eigenvalues --    0.60965   0.61743   0.62041   0.62349   0.63010
 Alpha virt. eigenvalues --    0.63154   0.63293   0.63465   0.63859   0.64421
 Alpha virt. eigenvalues --    0.64530   0.64643   0.65223   0.65324   0.65453
 Alpha virt. eigenvalues --    0.65725   0.66410   0.66743   0.67805   0.68121
 Alpha virt. eigenvalues --    0.69197   0.69837   0.70435   0.71213   0.71552
 Alpha virt. eigenvalues --    0.71967   0.72476   0.72842   0.73773   0.74443
 Alpha virt. eigenvalues --    0.74697   0.75456   0.75711   0.76025   0.77821
 Alpha virt. eigenvalues --    0.78971   0.79699   0.80018   0.80701   0.81026
 Alpha virt. eigenvalues --    0.81536   0.82823   0.84456   0.84983   0.85142
 Alpha virt. eigenvalues --    0.85535   0.86150   0.86221   0.86371   0.86979
 Alpha virt. eigenvalues --    0.87257   0.87646   0.88031   0.88448   0.88615
 Alpha virt. eigenvalues --    0.89165   0.89576   0.89595   0.89796   0.90033
 Alpha virt. eigenvalues --    0.90480   0.90524   0.91097   0.91676   0.92113
 Alpha virt. eigenvalues --    0.92633   0.93259   0.93338   0.94766   0.95264
 Alpha virt. eigenvalues --    0.95474   0.95549   0.95776   0.95955   0.96149
 Alpha virt. eigenvalues --    0.96669   0.97211   0.97354   0.97795   0.98103
 Alpha virt. eigenvalues --    0.98436   0.98784   0.99145   0.99373   1.00319
 Alpha virt. eigenvalues --    1.00513   1.00760   1.01351   1.01608   1.02234
 Alpha virt. eigenvalues --    1.02673   1.03542   1.04249   1.04594   1.04915
 Alpha virt. eigenvalues --    1.05472   1.05848   1.06123   1.06458   1.07199
 Alpha virt. eigenvalues --    1.07320   1.08029   1.08523   1.08898   1.09630
 Alpha virt. eigenvalues --    1.10363   1.10904   1.10999   1.12025   1.12911
 Alpha virt. eigenvalues --    1.13222   1.13571   1.14654   1.15296   1.16515
 Alpha virt. eigenvalues --    1.18333   1.18755   1.18923   1.20074   1.20442
 Alpha virt. eigenvalues --    1.22146   1.22768   1.22945   1.23633   1.25130
 Alpha virt. eigenvalues --    1.25873   1.29316   1.29392   1.30860   1.31052
 Alpha virt. eigenvalues --    1.31860   1.32315   1.33043   1.34548   1.35094
 Alpha virt. eigenvalues --    1.36456   1.38460   1.38836   1.40043   1.41858
 Alpha virt. eigenvalues --    1.43332   1.44612   1.45080   1.45658   1.45967
 Alpha virt. eigenvalues --    1.47281   1.48320   1.48930   1.50357   1.51633
 Alpha virt. eigenvalues --    1.52327   1.53214   1.53544   1.54433   1.54819
 Alpha virt. eigenvalues --    1.54887   1.56085   1.57242   1.58081   1.59694
 Alpha virt. eigenvalues --    1.60476   1.61167   1.62214   1.62893   1.64450
 Alpha virt. eigenvalues --    1.66410   1.66854   1.67039   1.68472   1.71391
 Alpha virt. eigenvalues --    1.73149   1.74405   1.75454   1.77438   1.79056
 Alpha virt. eigenvalues --    1.80964   1.81279   1.82223   1.83108   1.83836
 Alpha virt. eigenvalues --    1.84088   1.84645   1.84918   1.85038   1.85238
 Alpha virt. eigenvalues --    1.86413   1.86641   1.87214   1.87772   1.88517
 Alpha virt. eigenvalues --    1.89397   1.89771   1.90677   1.91127   1.91609
 Alpha virt. eigenvalues --    1.91879   1.92718   1.93582   1.94229   1.95394
 Alpha virt. eigenvalues --    1.95921   1.97431   1.98011   1.98189   1.98831
 Alpha virt. eigenvalues --    1.99003   1.99844   2.00358   2.00883   2.01043
 Alpha virt. eigenvalues --    2.01571   2.01748   2.02247   2.03130   2.03345
 Alpha virt. eigenvalues --    2.04997   2.06050   2.06938   2.07916   2.08822
 Alpha virt. eigenvalues --    2.09086   2.10384   2.11645   2.12013   2.12806
 Alpha virt. eigenvalues --    2.14193   2.14903   2.15710   2.15913   2.16824
 Alpha virt. eigenvalues --    2.17114   2.17227   2.17445   2.19335   2.19469
 Alpha virt. eigenvalues --    2.21267   2.22291   2.22929   2.25755   2.26561
 Alpha virt. eigenvalues --    2.26783   2.27593   2.27734   2.28011   2.28558
 Alpha virt. eigenvalues --    2.28999   2.29542   2.31420   2.31637   2.31903
 Alpha virt. eigenvalues --    2.32481   2.33471   2.35283   2.35868   2.37566
 Alpha virt. eigenvalues --    2.38244   2.39438   2.40008   2.43023   2.43055
 Alpha virt. eigenvalues --    2.44644   2.46470   2.48186   2.51506   2.51857
 Alpha virt. eigenvalues --    2.51983   2.53063   2.55485   2.56099   2.56868
 Alpha virt. eigenvalues --    2.58849   2.60574   2.62283   2.62582   2.64420
 Alpha virt. eigenvalues --    2.65019   2.66999   2.67119   2.67762   2.67986
 Alpha virt. eigenvalues --    2.68660   2.70984   2.73095   2.74054   2.74601
 Alpha virt. eigenvalues --    2.75242   2.75452   2.76618   2.78831   2.80864
 Alpha virt. eigenvalues --    2.81720   2.83408   2.83537   2.84962   2.88522
 Alpha virt. eigenvalues --    2.89935   2.91196   2.93275   2.93489   3.03039
 Alpha virt. eigenvalues --    3.04071   3.18964   3.19376   3.38962   3.39855
 Alpha virt. eigenvalues --    3.69576   3.89709   3.95774   3.97126   3.98975
 Alpha virt. eigenvalues --    3.99734   4.01126   4.08850   4.09812   4.10508
 Alpha virt. eigenvalues --    4.11198   4.12667   4.14166   4.15708   4.17395
 Alpha virt. eigenvalues --    4.19119   4.22933   4.24644   4.26984   4.30688
 Alpha virt. eigenvalues --    4.31745   4.33950   4.35676   4.38398   4.39431
 Alpha virt. eigenvalues --    4.40019   4.41296   4.43860   4.45588   4.50739
 Alpha virt. eigenvalues --    4.64959   4.66437   4.71076   4.72370
  Beta  occ. eigenvalues --  -90.13824 -90.10673 -89.96491 -89.95579 -19.65780
  Beta  occ. eigenvalues --  -19.65756 -19.63426 -19.63016 -14.77639 -14.76913
  Beta  occ. eigenvalues --  -10.63580 -10.62954 -10.61193 -10.60412 -10.60284
  Beta  occ. eigenvalues --  -10.59920 -10.59912 -10.59599 -10.58866 -10.58725
  Beta  occ. eigenvalues --  -10.58676 -10.58567 -10.58282 -10.57433 -10.56749
  Beta  occ. eigenvalues --  -10.56641 -10.56505 -10.56455 -10.56338 -10.55872
  Beta  occ. eigenvalues --  -10.55743 -10.55580 -10.55168 -10.54189  -8.45364
  Beta  occ. eigenvalues --   -8.43122  -8.31099  -8.30169  -6.37499  -6.37450
  Beta  occ. eigenvalues --   -6.37435  -6.35230  -6.35141  -6.34648  -6.23095
  Beta  occ. eigenvalues --   -6.22892  -6.22623  -6.22158  -6.21949  -6.21686
  Beta  occ. eigenvalues --   -1.22435  -1.21597  -1.11620  -1.11399  -1.09069
  Beta  occ. eigenvalues --   -1.08501  -0.97099  -0.96950  -0.95197  -0.94688
  Beta  occ. eigenvalues --   -0.91188  -0.90416  -0.89988  -0.89301  -0.86472
  Beta  occ. eigenvalues --   -0.84624  -0.83992  -0.82935  -0.82026  -0.80339
  Beta  occ. eigenvalues --   -0.76971  -0.74203  -0.73738  -0.69848  -0.69154
  Beta  occ. eigenvalues --   -0.68936  -0.68488  -0.67824  -0.67631  -0.66768
  Beta  occ. eigenvalues --   -0.64165  -0.63796  -0.60099  -0.59353  -0.59090
  Beta  occ. eigenvalues --   -0.57573  -0.57093  -0.56468  -0.56147  -0.55961
  Beta  occ. eigenvalues --   -0.55781  -0.55210  -0.54698  -0.53842  -0.53208
  Beta  occ. eigenvalues --   -0.52817  -0.52136  -0.51933  -0.51509  -0.51364
  Beta  occ. eigenvalues --   -0.50948  -0.50566  -0.50053  -0.48811  -0.48591
  Beta  occ. eigenvalues --   -0.48405  -0.47518  -0.47325  -0.46984  -0.46197
  Beta  occ. eigenvalues --   -0.45833  -0.44759  -0.44542  -0.44004  -0.43599
  Beta  occ. eigenvalues --   -0.43394  -0.42391  -0.42261  -0.42014  -0.40969
  Beta  occ. eigenvalues --   -0.40714  -0.40422  -0.40133  -0.39741  -0.39514
  Beta  occ. eigenvalues --   -0.39282  -0.38746  -0.38611  -0.38553  -0.37162
  Beta  occ. eigenvalues --   -0.36718  -0.36667  -0.36019  -0.34992  -0.34822
  Beta  occ. eigenvalues --   -0.34205  -0.29688  -0.29389  -0.28821  -0.28272
  Beta virt. eigenvalues --   -0.10847  -0.01016  -0.00464   0.01951   0.03023
  Beta virt. eigenvalues --    0.03775   0.04878   0.06711   0.06923   0.08738
  Beta virt. eigenvalues --    0.09240   0.10293   0.11127   0.11678   0.11937
  Beta virt. eigenvalues --    0.12665   0.12952   0.13478   0.13757   0.13916
  Beta virt. eigenvalues --    0.14044   0.14156   0.14164   0.14929   0.15730
  Beta virt. eigenvalues --    0.16243   0.16795   0.17309   0.17472   0.18025
  Beta virt. eigenvalues --    0.18351   0.18935   0.19590   0.19746   0.20005
  Beta virt. eigenvalues --    0.20719   0.20879   0.21109   0.21410   0.22004
  Beta virt. eigenvalues --    0.22132   0.22392   0.22443   0.22697   0.22838
  Beta virt. eigenvalues --    0.23223   0.23782   0.24108   0.24201   0.24984
  Beta virt. eigenvalues --    0.25599   0.26648   0.27363   0.27719   0.28139
  Beta virt. eigenvalues --    0.29045   0.29615   0.30231   0.30605   0.31418
  Beta virt. eigenvalues --    0.31872   0.32234   0.33269   0.33459   0.34642
  Beta virt. eigenvalues --    0.35498   0.36173   0.37436   0.38075   0.39004
  Beta virt. eigenvalues --    0.39706   0.40771   0.41216   0.41443   0.41996
  Beta virt. eigenvalues --    0.42998   0.43439   0.43852   0.44304   0.46236
  Beta virt. eigenvalues --    0.46756   0.47625   0.49930   0.50773   0.52198
  Beta virt. eigenvalues --    0.52495   0.53092   0.53830   0.54687   0.55220
  Beta virt. eigenvalues --    0.55789   0.56191   0.56568   0.57346   0.57479
  Beta virt. eigenvalues --    0.57911   0.58499   0.58653   0.58755   0.59358
  Beta virt. eigenvalues --    0.59466   0.61030   0.61895   0.62217   0.62410
  Beta virt. eigenvalues --    0.63090   0.63267   0.63319   0.63508   0.63983
  Beta virt. eigenvalues --    0.64455   0.64536   0.64810   0.65235   0.65330
  Beta virt. eigenvalues --    0.65486   0.65932   0.66493   0.66796   0.67919
  Beta virt. eigenvalues --    0.68335   0.69204   0.69859   0.70525   0.71348
  Beta virt. eigenvalues --    0.71693   0.72028   0.72817   0.72909   0.73823
  Beta virt. eigenvalues --    0.74487   0.74761   0.75479   0.75735   0.76041
  Beta virt. eigenvalues --    0.78166   0.79193   0.79805   0.80822   0.81050
  Beta virt. eigenvalues --    0.81531   0.81679   0.82970   0.84504   0.85165
  Beta virt. eigenvalues --    0.85285   0.85777   0.86357   0.86383   0.86601
  Beta virt. eigenvalues --    0.87060   0.87293   0.87694   0.88112   0.88477
  Beta virt. eigenvalues --    0.88620   0.89283   0.89603   0.89634   0.89850
  Beta virt. eigenvalues --    0.90100   0.90495   0.90613   0.91116   0.91752
  Beta virt. eigenvalues --    0.92116   0.92652   0.93295   0.93381   0.94790
  Beta virt. eigenvalues --    0.95349   0.95517   0.95600   0.95857   0.95994
  Beta virt. eigenvalues --    0.96223   0.96689   0.97236   0.97406   0.97818
  Beta virt. eigenvalues --    0.98143   0.98454   0.98812   0.99209   0.99704
  Beta virt. eigenvalues --    1.00352   1.00522   1.00764   1.01373   1.01627
  Beta virt. eigenvalues --    1.02248   1.02778   1.03591   1.04314   1.04607
  Beta virt. eigenvalues --    1.05015   1.05620   1.05867   1.06177   1.07222
  Beta virt. eigenvalues --    1.07391   1.07461   1.08097   1.08672   1.09264
  Beta virt. eigenvalues --    1.09710   1.10580   1.10938   1.11787   1.12249
  Beta virt. eigenvalues --    1.13158   1.13441   1.14338   1.14761   1.15913
  Beta virt. eigenvalues --    1.16611   1.18427   1.18779   1.19574   1.20101
  Beta virt. eigenvalues --    1.20510   1.22158   1.22784   1.22979   1.23749
  Beta virt. eigenvalues --    1.25626   1.25920   1.29321   1.29405   1.30875
  Beta virt. eigenvalues --    1.31060   1.31895   1.32334   1.33071   1.34558
  Beta virt. eigenvalues --    1.35160   1.36484   1.38608   1.38891   1.40049
  Beta virt. eigenvalues --    1.41902   1.43334   1.44691   1.45086   1.45662
  Beta virt. eigenvalues --    1.45975   1.47301   1.48323   1.48935   1.50420
  Beta virt. eigenvalues --    1.51651   1.52402   1.53275   1.53546   1.54433
  Beta virt. eigenvalues --    1.54844   1.54910   1.56122   1.57288   1.58102
  Beta virt. eigenvalues --    1.59731   1.60554   1.61214   1.62229   1.62911
  Beta virt. eigenvalues --    1.64714   1.66468   1.66875   1.67371   1.68576
  Beta virt. eigenvalues --    1.71455   1.73229   1.74436   1.75457   1.77449
  Beta virt. eigenvalues --    1.79225   1.81034   1.81326   1.82425   1.83155
  Beta virt. eigenvalues --    1.83876   1.84395   1.84944   1.85329   1.85453
  Beta virt. eigenvalues --    1.85849   1.86440   1.86794   1.87236   1.87811
  Beta virt. eigenvalues --    1.89130   1.89446   1.89827   1.90880   1.91255
  Beta virt. eigenvalues --    1.91721   1.92034   1.93024   1.93814   1.94246
  Beta virt. eigenvalues --    1.95492   1.96162   1.97482   1.98098   1.98300
  Beta virt. eigenvalues --    1.98838   1.99173   1.99860   2.00426   2.00965
  Beta virt. eigenvalues --    2.01130   2.01588   2.02033   2.02314   2.03136
  Beta virt. eigenvalues --    2.03450   2.05100   2.06277   2.06987   2.08302
  Beta virt. eigenvalues --    2.08881   2.09431   2.10532   2.11660   2.12045
  Beta virt. eigenvalues --    2.12948   2.14626   2.14906   2.15846   2.16176
  Beta virt. eigenvalues --    2.16868   2.17126   2.17262   2.17561   2.19336
  Beta virt. eigenvalues --    2.19613   2.21409   2.22355   2.23015   2.25773
  Beta virt. eigenvalues --    2.26576   2.26915   2.27636   2.27813   2.28069
  Beta virt. eigenvalues --    2.28604   2.29025   2.29642   2.31420   2.31804
  Beta virt. eigenvalues --    2.32005   2.32489   2.33483   2.35350   2.36020
  Beta virt. eigenvalues --    2.37641   2.38246   2.39603   2.40114   2.43039
  Beta virt. eigenvalues --    2.43097   2.44655   2.46583   2.48200   2.51507
  Beta virt. eigenvalues --    2.51861   2.51984   2.53083   2.55505   2.56125
  Beta virt. eigenvalues --    2.56870   2.58849   2.60574   2.62297   2.62621
  Beta virt. eigenvalues --    2.64699   2.65051   2.67005   2.67131   2.67789
  Beta virt. eigenvalues --    2.67987   2.68660   2.71033   2.73095   2.74081
  Beta virt. eigenvalues --    2.74601   2.75243   2.75453   2.77136   2.79005
  Beta virt. eigenvalues --    2.80915   2.81729   2.83540   2.83724   2.84963
  Beta virt. eigenvalues --    2.88531   2.89941   2.91219   2.93275   2.93494
  Beta virt. eigenvalues --    3.03039   3.04075   3.18964   3.19378   3.38962
  Beta virt. eigenvalues --    3.39856   3.70120   3.90080   3.95829   3.98913
  Beta virt. eigenvalues --    3.99299   3.99735   4.01127   4.08867   4.09813
  Beta virt. eigenvalues --    4.10508   4.11199   4.12670   4.14166   4.15715
  Beta virt. eigenvalues --    4.17397   4.20029   4.22933   4.24660   4.27008
  Beta virt. eigenvalues --    4.30869   4.31763   4.33953   4.35686   4.38402
  Beta virt. eigenvalues --    4.39442   4.40097   4.41553   4.44038   4.45590
  Beta virt. eigenvalues --    4.50740   4.65016   4.66461   4.71076   4.72371
          Condensed to atoms (all electrons):
          Atomic-Atomic Spin Densities.
 Mulliken charges and spin densities:
               1          2
     1  C   -0.152889   0.000000
     2  C    0.237383   0.000000
     3  C   -0.167717  -0.000000
     4  C   -0.192894  -0.000000
     5  C   -0.153292   0.000000
     6  C   -0.183977  -0.000000
     7  H    0.185380  -0.000000
     8  H    0.184040   0.000000
     9  H    0.173810  -0.000000
    10  H    0.173690   0.000000
    11  S    0.213895   0.000000
    12  N   -0.460226   0.000000
    13  C    0.076008  -0.000001
    14  S    1.170134   0.000875
    15  O   -0.553109   0.000233
    16  O   -0.583542   0.000024
    17  C   -0.532107   0.000477
    18  C   -0.318873  -0.000031
    19  H    0.226302  -0.000023
    20  H    0.244956   0.000113
    21  C   -0.183519   0.000017
    22  H    0.164529   0.000011
    23  H    0.211362  -0.000001
    24  C   -0.291602   0.000004
    25  H    0.191334  -0.000002
    26  H    0.155132  -0.000000
    27  H    0.162720  -0.000000
    28  C   -0.293447   0.000001
    29  C   -0.480073   0.000000
    30  H    0.168042  -0.000000
    31  H    0.159945   0.000000
    32  H    0.167836   0.000000
    33  H    0.159447  -0.000000
    34  H    0.158011  -0.000000
    35  C   -0.513561   0.002455
    36  H    0.209357  -0.000076
    37  C   -0.188546   0.004269
    38  H    0.207820  -0.000120
    39  C   -0.309928   0.016006
    40  H    0.222923  -0.000656
    41  H    0.196152  -0.000382
    42  H    0.244864  -0.000122
    43  C   -0.519998   0.144981
    44  H    0.242997  -0.007293
    45  H    0.222738  -0.007494
    46  C    0.055949  -0.000146
    47  C    0.251393   0.000038
    48  C   -0.169735  -0.000053
    49  C   -0.149308  -0.000041
    50  C   -0.191185   0.000014
    51  C   -0.185038   0.000014
    52  H    0.182808   0.000002
    53  C   -0.152942  -0.000046
    54  H    0.181180  -0.000001
    55  H    0.169987  -0.000000
    56  H    0.169424   0.000002
    57  N   -0.472900  -0.000174
    58  S    0.291354   0.000004
    59  S    1.000376   0.318319
    60  O   -0.511269   0.269826
    61  O   -0.521603   0.258976
 Sum of Mulliken charges =  -0.00000   1.00000
 Mulliken charges and spin densities with hydrogens summed into heavy atoms:
               1          2
     1  C    0.032492   0.000000
     2  C    0.237383   0.000000
     3  C   -0.167717  -0.000000
     4  C   -0.008854  -0.000000
     5  C    0.020518   0.000000
     6  C   -0.010287  -0.000000
    11  S    0.213895   0.000000
    12  N   -0.460226   0.000000
    13  C    0.076008  -0.000001
    14  S    1.170134   0.000875
    15  O   -0.553109   0.000233
    16  O   -0.583542   0.000024
    17  C   -0.060849   0.000567
    18  C    0.057018  -0.000021
    21  C    0.007815   0.000015
    24  C    0.026250   0.000004
    28  C    0.034541   0.000001
    29  C    0.005221   0.000001
    35  C   -0.059339   0.002257
    37  C    0.019273   0.004150
    39  C    0.109146   0.014968
    43  C   -0.054262   0.130194
    46  C    0.055949  -0.000146
    47  C    0.251393   0.000038
    48  C   -0.169735  -0.000053
    49  C    0.033500  -0.000039
    50  C   -0.010006   0.000014
    51  C   -0.015051   0.000013
    53  C    0.016482  -0.000044
    57  N   -0.472900  -0.000174
    58  S    0.291354   0.000004
    59  S    1.000376   0.318319
    60  O   -0.511269   0.269826
    61  O   -0.521603   0.258976
 Electronic spatial extent (au):  <R**2>=          25854.8532
 Charge=             -0.0000 electrons
 Dipole moment (field-independent basis, Debye):
    X=             -2.5086    Y=             -0.9241    Z=             -0.7938  Tot=              2.7887
 Quadrupole moment (field-independent basis, Debye-Ang):
   XX=           -203.8339   YY=           -251.6149   ZZ=           -217.3048
   XY=            -12.0686   XZ=             -6.7854   YZ=              0.2001
 Traceless Quadrupole moment (field-independent basis, Debye-Ang):
   XX=             20.4173   YY=            -27.3637   ZZ=              6.9464
   XY=            -12.0686   XZ=             -6.7854   YZ=              0.2001
 Octapole moment (field-independent basis, Debye-Ang**2):
  XXX=            139.6887  YYY=           -104.5277  ZZZ=             44.3833  XYY=            -45.1253
  XXY=            -64.6356  XXZ=             10.8627  XZZ=            -33.5504  YZZ=             11.0529
  YYZ=              4.5081  XYZ=            -61.8272
 Hexadecapole moment (field-independent basis, Debye-Ang**3):
 XXXX=         -23566.6241 YYYY=          -6768.1462 ZZZZ=          -4436.6814 XXXY=           -380.6134
 XXXZ=           -145.4226 YYYX=           -322.7384 YYYZ=            122.3534 ZZZX=           -168.0497
 ZZZY=              9.8852 XXYY=          -4817.4436 XXZZ=          -4219.7529 YYZZ=          -1806.9081
 XXYZ=           -132.3413 YYXZ=           -118.5542 ZZXY=            -29.5817
 N-N= 4.270457833965D+03 E-N=-1.543867608454D+04  KE= 2.916855494366D+03
                          Isotropic Fermi Contact Couplings
        Atom                 a.u.       MegaHertz       Gauss      10(-4) cm-1
     1  C(13)              0.00000       0.00000       0.00000       0.00000
     2  C(13)             -0.00000      -0.00001      -0.00000      -0.00000
     3  C(13)             -0.00000      -0.00002      -0.00001      -0.00001
     4  C(13)             -0.00000      -0.00003      -0.00001      -0.00001
     5  C(13)              0.00000       0.00002       0.00001       0.00001
     6  C(13)             -0.00000      -0.00002      -0.00001      -0.00001
     7  H(1)              -0.00000      -0.00000      -0.00000      -0.00000
     8  H(1)               0.00000       0.00001       0.00000       0.00000
     9  H(1)              -0.00000      -0.00001      -0.00000      -0.00000
    10  H(1)               0.00000       0.00001       0.00000       0.00000
    11  S(33)             -0.00000      -0.00074      -0.00026      -0.00025
    12  N(14)              0.00000       0.00010       0.00004       0.00003
    13  C(13)             -0.00000      -0.00067      -0.00024      -0.00022
    14  S(33)              0.00179       0.61377       0.21901       0.20473
    15  O(17)              0.00004      -0.02689      -0.00959      -0.00897
    16  O(17)             -0.00000       0.00014       0.00005       0.00005
    17  C(13)              0.00031       0.35214       0.12565       0.11746
    18  C(13)             -0.00001      -0.01603      -0.00572      -0.00535
    19  H(1)              -0.00000      -0.00238      -0.00085      -0.00079
    20  H(1)               0.00005       0.21388       0.07632       0.07134
    21  C(13)              0.00002       0.02310       0.00824       0.00771
    22  H(1)               0.00000       0.01288       0.00460       0.00430
    23  H(1)               0.00000       0.00035       0.00012       0.00012
    24  C(13)              0.00000       0.00206       0.00074       0.00069
    25  H(1)               0.00000       0.00016       0.00006       0.00005
    26  H(1)              -0.00000      -0.00019      -0.00007      -0.00006
    27  H(1)              -0.00000      -0.00004      -0.00002      -0.00001
    28  C(13)              0.00000       0.00069       0.00025       0.00023
    29  C(13)              0.00000       0.00051       0.00018       0.00017
    30  H(1)              -0.00000      -0.00004      -0.00001      -0.00001
    31  H(1)               0.00000       0.00003       0.00001       0.00001
    32  H(1)               0.00000       0.00029       0.00010       0.00010
    33  H(1)              -0.00000      -0.00002      -0.00001      -0.00001
    34  H(1)              -0.00000      -0.00004      -0.00001      -0.00001
    35  C(13)              0.00298       3.35216       1.19613       1.11816
    36  H(1)              -0.00001      -0.02957      -0.01055      -0.00986
    37  C(13)              0.00747       8.40133       2.99780       2.80238
    38  H(1)               0.00003       0.15589       0.05563       0.05200
    39  C(13)              0.00255       2.86207       1.02126       0.95468
    40  H(1)              -0.00032      -1.40841      -0.50255      -0.46979
    41  H(1)              -0.00029      -1.30302      -0.46495      -0.43464
    42  H(1)              -0.00005      -0.21619      -0.07714      -0.07211
    43  C(13)              0.08717      98.00129      34.96930      32.68971
    44  H(1)              -0.00250     -11.17082      -3.98603      -3.72618
    45  H(1)              -0.00247     -11.05898      -3.94612      -3.68888
    46  C(13)             -0.00009      -0.10638      -0.03796      -0.03548
    47  C(13)             -0.00001      -0.00736      -0.00263      -0.00246
    48  C(13)             -0.00001      -0.01612      -0.00575      -0.00538
    49  C(13)             -0.00001      -0.00837      -0.00299      -0.00279
    50  C(13)              0.00000       0.00351       0.00125       0.00117
    51  C(13)              0.00000       0.00433       0.00154       0.00144
    52  H(1)               0.00000       0.00300       0.00107       0.00100
    53  C(13)             -0.00001      -0.00979      -0.00349      -0.00327
    54  H(1)              -0.00000      -0.00077      -0.00027      -0.00026
    55  H(1)              -0.00000      -0.00037      -0.00013      -0.00012
    56  H(1)               0.00000       0.00290       0.00103       0.00097
    57  N(14)             -0.00015      -0.04733      -0.01689      -0.01579
    58  S(33)              0.00000       0.00064       0.00023       0.00021
    59  S(33)              0.49445     169.82908      60.59924      56.64888
    60  O(17)              0.05379     -32.60613     -11.63468     -10.87623
    61  O(17)              0.05288     -32.05828     -11.43919     -10.69349
 --------------------------------------------------------
       Center         ----  Spin Dipole Couplings  ----
                      3XX-RR        3YY-RR        3ZZ-RR
 --------------------------------------------------------
     1   Atom        0.000114     -0.000048     -0.000067
     2   Atom        0.000170     -0.000058     -0.000112
     3   Atom        0.000270     -0.000119     -0.000150
     4   Atom        0.000260     -0.000150     -0.000110
     5   Atom        0.000163     -0.000107     -0.000056
     6   Atom        0.000114     -0.000068     -0.000046
     7   Atom        0.000081     -0.000026     -0.000055
     8   Atom        0.000337     -0.000204     -0.000133
     9   Atom        0.000143     -0.000109     -0.000033
    10   Atom        0.000082     -0.000055     -0.000027
[...]
 00004201,0.00002873,0.00002763,-0.00008412,-0.00001832,-0.00003979,0.0
 0000852,-0.00004809,-0.00001177,-0.00002337,-0.00002107,0.00005138,-0.
 00004822,-0.00000056,0.00000062,0.00002815,0.00002639,-0.00002538,-0.0
 0003036,0.00000325,-0.00003579,0.00001056,0.00001192,-0.00000324,0.000
 00894,0.00001793,0.00000062,0.00001673,0.00000765,0.00000041,0.0000500
 3,-0.00001255,0.00014607,0.00006162,0.00011207,0.00004061,0.41300975,-
 0.00002100,-0.00001679,0.00002163,0.00000027,0.00004342,0.00003068,-0.
 00001839,-0.00005650,0.00013256,0.00004273,0.00007145,-0.00004752,0.00
 001558,-0.00000833,0.00001644,0.00001435,-0.00002312,-0.00000700,-0.00
 000779,0.00000623,0.00000009,-0.00001472,0.00000734,0.00000703,0.00000
 003,-0.00000146,-0.00002868,-0.00000143,0.00000638,-0.00000859,0.00001
 854,0.00001939,-0.00006790,0.00005354,-0.00004553,-0.00008853,0.000037
 72,0.00004869,0.00008038,-0.00120671,-0.00117563,-0.00000579,0.0004383
 6,0.00043954,-0.00002652,0.00050233,0.00051883,0.00009695,0.00013304,0
 .00015577,0.00002183,0.00002175,0.00001218,-0.00014681,-0.00002633,-0.
 00000384,0.00003514,0.00007375,0.00000376,0.00001293,-0.00008493,-0.00
 001109,0.00009116,-0.00005709,0.00002979,-0.00001182,-0.00000180,0.000
 00122,0.00000421,0.00006987,0.00001503,-0.00008210,0.00001770,-0.00000
 565,-0.00002023,-0.00001096,-0.00000562,0.00000759,-0.00001422,-0.0000
 0512,-0.00001095,-0.00003818,-0.00001078,0.00004615,0.00002767,0.00001
 684,-0.00003147,0.00000886,0.00000107,-0.00000719,0.00000496,-0.000002
 48,0.00000108,0.00002882,-0.00000484,0.00000966,-0.00001433,-0.0000094
 3,0.00000428,-0.00000741,-0.00000365,0.00000491,0.00014109,-0.00021183
 ,-0.00033572,-0.00013172,-0.00001880,0.00001117,-0.00290822,0.00039641
 ,0.00266785,-0.00019863,0.00010645,-0.00024256,-0.01085978,-0.03441997
 ,-0.00131417,0.00173595,0.00131843,-0.00029607,0.00251216,0.00174644,-
 0.00047072,-0.00002265,0.00000326,0.00003161,-0.02460429,-0.09555324,0
 .00150266,0.00011183,-0.01203488,-0.00202859,0.00126817,-0.00669635,-0
 .00011172,-0.00022560,-0.00021198,-0.00097038,0.00036034,-0.00032716,0
 .00024823,-0.00008077,0.00012094,0.00020806,0.00002196,0.00006358,0.00
 024252,0.00015749,-0.00014751,-0.00015276,-0.00010518,0.00012319,0.000
 05793,0.00001773,-0.00003092,0.00002605,-0.00009846,0.00002464,-0.0001
 2633,-0.00002122,0.00001020,0.00002932,-0.00004514,0.00001684,-0.00005
 148,-0.00004657,0.00003310,-0.00003211,0.00025871,0.00104708,0.0000379
 9,-0.00024941,0.00009039,-0.00009570,-0.12970465,0.32344597,0.00000135
 ,-0.00001079,0.00000885,-0.00000501,0.00005997,0.00002160,-0.00003835,
 0.00000665,0.00012008,0.00000429,0.00005436,-0.00004213,-0.00002840,-0
 .00001273,-0.00001984,-0.00000938,-0.00000629,-0.00002118,0.00000091,-
 0.00000437,0.00000036,0.00003127,-0.00001402,0.00003061,0.00002804,-0.
 00000528,-0.00000749,0.00001171,-0.00000291,-0.00000136,0.00000777,-0.
 00002746,-0.00003415,0.00005193,-0.00002959,-0.00011190,-0.00002750,0.
 00001591,0.00005241,0.00021745,-0.00035444,0.00011787,-0.00006592,0.00
 017261,-0.00016048,0.00000601,0.00008841,-0.00012858,-0.00000209,0.000
 15834,0.00001918,-0.00002043,-0.00004530,-0.00001697,-0.00001153,-0.00
 000342,0.00000291,0.00005011,0.00000133,0.00000186,-0.00000724,0.00001
 717,0.00002390,-0.00001165,0.00002120,0.00002633,0.00000355,-0.0000207
 2,-0.00000806,0.00000641,-0.00004049,0.00000542,0.00000723,-0.00000522
 ,-0.00000952,-0.00000311,0.00002216,0.00001262,-0.00000638,-0.00001078
 ,-0.00002099,-0.00000234,0.00000763,0.00001370,0.00000010,-0.00001046,
 0.00000178,0.00000897,-0.00001000,-0.00000800,0.00000627,0.00000709,-0
 .00000315,0.00000568,0.00000301,-0.00000035,-0.00000181,0.00001251,0.0
 0000415,-0.00000296,-0.00000562,-0.00000837,0.00005411,0.00068826,0.00
 027138,-0.00009677,-0.00004481,0.00008861,0.00083188,0.00097387,-0.002
 53305,-0.00000890,-0.00061891,-0.00006182,-0.00203475,0.00564963,0.001
 73373,0.00236083,0.00243053,-0.00170566,-0.00156003,-0.00022857,0.0006
 4990,-0.00002255,0.00007935,-0.00000040,-0.00171433,-0.01179417,-0.039
 53678,0.00137858,0.01479521,0.00101184,-0.00039152,-0.02644328,-0.0035
 7947,0.00037989,0.00024134,0.00024674,0.00008864,-0.00005081,0.0000175
 6,0.00002712,0.00000256,0.00010671,-0.00006156,0.00001579,0.00018588,0
 .00004302,-0.00005685,-0.00005965,-0.00008543,0.00001149,-0.00002946,0
 .00003861,0.00006599,-0.00008564,-0.00005599,0.00003342,-0.00004808,0.
 00000424,-0.00000634,-0.00000122,-0.00001487,0.00003377,-0.00002229,0.
 00000504,-0.00000251,-0.00001396,-0.00009067,-0.00014350,-0.00036392,0
 .00008048,-0.00013880,-0.00024793,0.15825346,-0.02539263,0.82449202,-0
 .00000700,-0.00000158,0.00001334,0.00000669,0.00000835,-0.00001058,-0.
 00000720,-0.00003052,0.00000902,-0.00000065,0.00006057,-0.00001199,-0.
 00000468,-0.00001276,-0.00001756,0.00000065,-0.00001270,-0.00001029,-0
 .00000238,-0.00000271,0.00000027,0.00002724,-0.00001624,0.00000522,0.0
 0001140,0.00000112,-0.00000947,-0.00000160,-0.00000275,0.00000458,0.00
 000020,-0.00005758,-0.00001547,-0.00002345,-0.00009336,0.00002712,0.00
 002502,0.00017608,0.00001529,-0.00004331,-0.00003342,-0.00009807,0.000
 08139,0.00000292,0.00001140,0.00006765,-0.00002046,-0.00002546,0.00000
 628,0.00006910,0.00002813,0.00000535,0.00002048,-0.00003789,-0.0000093
 2,0.00000664,0.00000194,0.00002942,-0.00000175,0.00000228,-0.00001803,
 -0.00000888,0.00003675,-0.00000965,-0.00000413,0.00000818,0.00000277,-
 0.00000582,-0.00000172,0.00002210,0.00000652,-0.00000905,0.00000044,-0
 .00000904,-0.00000744,-0.00000424,-0.00000584,0.00000686,-0.00000437,-
 0.00000522,-0.00001086,-0.00000067,0.00000413,0.00001076,0.00000377,0.
 00000295,-0.00000101,0.00000725,-0.00000358,-0.00000648,-0.00000113,-0
 .00000357,0.00000098,-0.00000153,0.00000066,0.00000104,-0.00000072,-0.
 00000213,0.00000263,0.00000060,-0.00000302,-0.00000436,-0.00003638,0.0
 0043997,0.00014202,0.00001885,0.00001570,0.00004704,0.00116628,0.00024
 594,-0.00120830,-0.00006509,-0.00037894,-0.00003067,-0.00093360,0.0019
 0959,0.00180688,0.00017132,0.00041476,-0.00085803,0.00033761,0.0003369
 6,0.00024102,-0.00000967,0.00006493,-0.00001368,0.00614258,-0.00570451
 ,-0.00102722,0.00022298,-0.00148445,0.00002858,0.00130794,0.00047544,-
 0.00026170,-0.00006870,-0.00009235,0.00004014,0.00000160,-0.00004200,-
 0.00000832,0.00005428,-0.00001452,0.00000497,0.00000300,0.00003193,0.0
 0001426,0.00000875,0.00001382,-0.00001741,0.00002930,-0.00000003,-0.00
 000547,-0.00002690,-0.00001331,0.00001041,0.00001684,-0.00000024,0.000
 01323,-0.00000428,-0.00000955,0.00000187,-0.00000715,-0.00000883,0.000
 00188,-0.00000691,-0.00000597,0.00000151,0.00012892,0.00003769,-0.0000
 2898,0.00000953,-0.00007190,-0.00004786,-0.06428858,0.02385882,0.06871
 341,0.03811433,0.00000534,0.00001069,-0.00000890,0.00000661,-0.0000231
 6,-0.00001499,0.00001040,0.00002149,-0.00006342,-0.00002366,-0.0000335
 1,0.00002072,-0.00000424,0.00000393,-0.00000742,-0.00000557,0.00001024
 ,0.00000260,0.00000501,-0.00000208,0.00000045,0.00000848,-0.00000610,-
 0.00000403,-0.00000052,0.00000003,0.00001237,0.00000104,-0.00000236,0.
 00000455,-0.00001256,-0.00001014,0.00003548,-0.00003437,0.00002217,0.0
 0004509,-0.00001114,-0.00001541,-0.00003977,0.00046380,0.00064979,0.00
 005491,-0.00016066,-0.00022399,0.00002034,-0.00023269,-0.00026059,-0.0
 0006841,-0.00004162,-0.00010598,-0.00001297,-0.00000909,-0.00000755,0.
 00006357,0.00001777,0.00000477,-0.00001751,-0.00004655,0.00000178,-0.0
 0000837,0.00003599,0.00000595,-0.00004274,0.00002462,-0.00001495,0.000
 00637,0.00000078,0.00000112,-0.00000190,-0.00003005,-0.00000536,0.0000
 3723,-0.00000691,0.00000348,0.00000799,0.00000415,0.00000041,-0.000003
 30,0.00000603,0.00000226,0.00000574,0.00001520,0.00000657,-0.00002210,
 -0.00001291,-0.00000759,0.00001360,-0.00000319,-0.00000025,0.00000338,
 -0.00000218,0.00000080,-0.00000043,-0.00001334,0.00000196,-0.00000494,
 0.00000609,0.00000349,-0.00000246,0.00000336,0.00000151,-0.00000176,0.
 00007429,-0.00007893,0.00008607,0.00003025,0.00000880,-0.00000441,0.00
 049673,0.00068902,-0.00106652,0.00005288,-0.00020096,0.00013292,0.0005
 1929,0.00328870,0.00127945,0.00033466,-0.00014355,-0.00064351,-0.00073
 518,-0.00058243,0.00002855,-0.00001695,0.00000180,-0.00000204,0.010214
 14,-0.00243720,-0.03039069,-0.00050957,0.00186070,-0.00011896,-0.00078
 985,-0.00770649,-0.00030364,-0.00012134,0.00037101,0.00031876,-0.00014
 512,0.00014252,-0.00008750,0.00003424,-0.00007548,-0.00009969,-0.00001
 269,-0.00002537,-0.00006642,-0.00005085,0.00005796,0.00006535,0.000038
 55,-0.00004880,-0.00003119,-0.00001132,0.00002606,-0.00002863,0.000045
 81,-0.00001429,0.00004991,0.00000742,-0.00000757,-0.00001353,0.0000191
 2,-0.00000911,0.00002304,0.00002166,-0.00001684,0.00001223,-0.00003591
 ,-0.00043767,-0.00001043,0.00014724,-0.00006219,-0.00000065,0.00828394
 ,-0.06371563,-0.07087022,-0.01694151,0.05691733,0.00000863,0.00000839,
 -0.00000980,-0.00000057,-0.00004902,-0.00002717,0.00003219,0.00000860,
 -0.00011537,-0.00000799,-0.00004374,0.00004263,0.00001315,0.00000599,0
 .00000644,0.00000294,0.00000954,0.00001752,-0.00000189,0.00000031,-0.0
 0000142,-0.00001670,0.00000930,-0.00002571,-0.00002008,0.00000579,0.00
 001251,-0.00000981,-0.00000097,0.00000331,-0.00000831,0.00000359,0.000
 03271,-0.00004959,0.00001332,0.00010530,0.00001176,0.00000225,-0.00005
 399,0.00006827,0.00065785,-0.00004942,-0.00002569,-0.00025574,0.000135
 84,-0.00012317,-0.00021895,0.00006073,-0.00002982,-0.00017915,-0.00002
 576,0.00000632,0.00002538,0.00005644,0.00001847,0.00000486,-0.00001525
 ,-0.00006307,-0.00000364,-0.00000712,0.00002884,-0.00000912,-0.0000392
 1,0.00002287,-0.00002072,-0.00001326,-0.00000274,0.00001130,0.00000318
 ,-0.00002431,0.00002432,0.00001963,-0.00000929,0.00000348,0.00001236,0
 .00000441,-0.00001182,-0.00000988,0.00000813,0.00000746,0.00001500,0.0
 0001344,-0.00000276,-0.00002068,-0.00000667,0.00000480,0.00000755,-0.0
 0000826,0.00000604,0.00000607,-0.00000549,-0.00000512,0.00000229,-0.00
 001161,-0.00000037,-0.00000171,0.00000498,-0.00000617,-0.00000257,0.00
 000425,0.00000401,0.00000309,0.00003326,-0.00059013,-0.00002324,0.0000
 8192,0.00002459,-0.00005701,-0.00038780,-0.00004692,0.00104874,0.00014
 565,0.00049352,0.00022581,0.00195844,0.00236493,-0.00021836,-0.0016581
 4,-0.00124206,0.00071238,-0.00046158,-0.00049005,0.00015623,-0.0000558
 0,-0.00008776,0.00000237,0.00205476,-0.00751646,-0.01847245,0.00033208
 ,-0.00060240,-0.00032325,-0.00009589,-0.00425013,0.00093358,-0.0002810
 0,0.00005972,-0.00032020,-0.00005947,0.00004769,-0.00001739,-0.0000609
 0,-0.00005260,-0.00013530,0.00003771,-0.00002082,-0.00020882,-0.000067
 13,0.00007698,0.00009996,0.00008941,-0.00004118,0.00001787,-0.00002817
 ,-0.00004490,0.00006129,0.00006119,-0.00002232,0.00005864,0.00000038,0
 .00000014,-0.00000575,0.00001973,-0.00002673,0.00002628,0.00000729,-0.
 00000502,0.00002041,0.00013228,0.00001202,0.00040401,-0.00003176,0.000
 11681,0.00025492,0.03126101,-0.07242316,-0.53161789,-0.03647998,0.0880
 5688,0.56077504,-0.00001340,-0.00000151,0.00002143,0.00000492,-0.00002
 022,-0.00002023,0.00001316,-0.00006555,-0.00005628,0.00001157,0.000064
 09,0.00000808,0.00001657,-0.00000853,-0.00001131,0.00000316,-0.0000235
 6,0.00000094,-0.00000366,-0.00000125,0.00000228,0.00000724,-0.00000922
 ,-0.00001712,-0.00000273,0.00000604,-0.00000975,-0.00000625,-0.0000004
 1,0.00000578,0.00000093,-0.00004392,-0.00002172,-0.00004739,-0.0001332
 1,0.00009063,0.00006118,0.00026176,0.00002257,-0.00025390,-0.00039749,
 -0.00030008,0.00019532,0.00010724,0.00006239,0.00019403,0.00010575,0.0
 0011597,0.00002749,0.00014920,0.00005038,0.00003040,0.00007923,-0.0000
 9185,-0.00002268,0.00000401,0.00001588,0.00007147,-0.00000286,0.000011
 19,-0.00004599,-0.00003679,0.00006421,-0.00002322,-0.00000791,-0.00000
 847,0.00000141,0.00000061,0.00000406,0.00004844,0.00004716,-0.00004388
 ,-0.00000165,-0.00001355,-0.00000796,-0.00000609,-0.00002315,0.0000057
 0,-0.00000589,-0.00000425,-0.00000634,-0.00000910,-0.00000927,0.000024
 82,0.00001368,0.00001759,-0.00001271,0.00000684,0.00000235,-0.00000728
 ,-0.00000483,-0.00000969,0.00000345,0.00000219,-0.00000290,0.00000513,
 -0.00000280,-0.00001218,0.00000390,0.00000071,-0.00000324,-0.00000097,
 -0.00010730,0.00070972,0.00016278,0.00006523,0.00005926,0.00002154,0.0
 0192679,-0.00016915,0.00006553,-0.00012240,-0.00000855,-0.00005186,-0.
 00316407,0.00093786,0.00076583,0.00028043,0.00004310,0.00000910,0.0022
 0852,0.00052212,0.00001503,-0.00000809,0.00002306,-0.00001158,-0.00178
 667,0.00283841,-0.00862475,0.00152956,0.00190741,0.00048539,-0.0002482
 8,-0.00024416,-0.00005839,0.00002386,-0.00052233,-0.00031870,0.0000698
 9,-0.00009926,0.00005415,0.00001727,0.00000948,0.00004056,0.00002121,0
 .00002809,0.00004898,0.00006167,-0.00000947,-0.00004344,-0.00000099,0.
 00003953,0.00002046,-0.00001457,-0.00003031,0.00002623,-0.00000197,-0.
 00000387,-0.00001894,-0.00001168,-0.00000349,0.00000802,-0.00001290,-0
 .00000954,-0.00000864,-0.00001997,0.00000097,-0.00000460,0.00026984,0.
 00029946,0.00015037,-0.00003122,-0.00007947,-0.00002280,-0.29460189,0.
 13887350,-0.22632688,0.01755479,-0.00091339,0.00362881,0.27584188,0.00
 000933,0.00000997,-0.00000966,0.00000300,-0.00002767,-0.00001740,0.000
 01065,0.00002389,-0.00007819,-0.00002584,-0.00003643,0.00002582,-0.000
 00769,0.00000628,-0.00000809,-0.00000792,0.00001122,0.00000331,0.00000
 463,-0.00000346,0.00000019,0.00001068,-0.00000510,-0.00000308,0.000001
 04,0.00000071,0.00001553,0.00000129,-0.00000300,0.00000555,-0.00000908
 ,-0.00001140,0.00003730,-0.00003740,0.00001834,0.00005556,-0.00001654,
 -0.00001094,-0.00004602,0.00050126,0.00073192,0.00009973,-0.00019742,-
 0.00026750,0.00002165,-0.00024033,-0.00028482,-0.00007760,-0.00005406,
 -0.00013343,-0.00002419,-0.00000946,0.00000386,0.00007730,0.00002038,0
 .00000450,-0.00002060,-0.00005591,0.00000080,-0.00000752,0.00004527,0.
 00000251,-0.00004979,0.00003152,-0.00001759,0.00000534,0.00000054,-0.0
 0000025,-0.00000238,-0.00003652,-0.00000373,0.00004445,-0.00001032,0.0
 0000299,0.00001100,0.00000659,0.00000040,-0.00000346,0.00000770,0.0000
 0235,0.00000592,0.00002111,0.00000535,-0.00002511,-0.00001623,-0.00000
 951,0.00001734,-0.00000431,-0.00000067,0.00000384,-0.00000366,0.000001
 34,-0.00000058,-0.00001687,0.00000239,-0.00000567,0.00000853,0.0000050
 7,-0.00000234,0.00000439,0.00000165,-0.00000305,0.00004811,-0.00012955
 ,-0.00001388,0.00006777,0.00002755,-0.00002296,0.00084770,0.00043309,-
 0.00005233,0.00005895,0.00007585,0.00004838,0.00037564,0.00419912,-0.0
 0012007,-0.00028413,-0.00084779,0.00024602,0.00014640,-0.00076510,0.00
 015440,0.00000464,-0.00002861,-0.00000253,0.02987607,-0.01189901,0.016
 07390,-0.00158288,-0.00790142,-0.00141771,-0.00010866,0.00170275,0.001
 05408,-0.00027286,0.00000274,0.00053896,-0.00016026,0.00015090,-0.0001
 0682,0.00011341,-0.00007822,-0.00007757,-0.00001954,-0.00002807,-0.000
 13941,-0.00009725,0.00009323,0.00007453,0.00007134,-0.00007943,-0.0000
 4117,-0.00000893,0.00001534,-0.00001082,0.00006140,-0.00001341,0.00009
 011,0.00001019,-0.00000835,-0.00001660,0.00002361,-0.00000921,0.000026
 26,0.00002388,-0.00001772,0.00001751,-0.00016120,-0.00051495,-0.000136
 94,0.00009480,-0.00002379,0.00006783,0.11824663,-0.11518568,0.11074169
 ,-0.00309990,0.01216517,-0.00379996,-0.14421332,0.11864448,-0.00000552
 ,0.00000202,-0.00000043,0.00000192,-0.00001765,0.00000217,0.00001582,-
 0.00001442,-0.00002804,0.00000532,-0.00002351,0.00000987,0.00001866,0.
 00000832,0.00001607,0.00000694,-0.00000092,0.00000958,-0.00000106,0.00
 000405,0.00000059,-0.00002234,0.00000909,-0.00001143,-0.00001431,0.000
 00175,-0.00000102,-0.00000410,0.00000403,-0.00000185,-0.00000292,0.000
 03371,0.00000629,-0.00000608,0.00002213,0.00002635,0.00001979,-0.00003
 235,-0.00001042,-0.00018816,-0.00030168,-0.00028013,0.00010169,0.00010
 146,0.00007103,0.00007548,0.00009283,0.00018905,0.00002473,0.00005631,
 0.00002995,0.00002164,0.00003500,-0.00004102,-0.00001089,-0.00000380,0
 .00001514,0.00002919,0.00000117,0.00000500,-0.00001888,-0.00001583,0.0
 0001369,-0.00000818,-0.00000539,-0.00002234,-0.00000028,0.00001546,0.0
 0000628,0.00001623,0.00002768,-0.00003048,-0.00000101,0.00000221,0.000
 00128,0.00000045,-0.00001510,-0.00000665,0.00000075,0.00000729,0.00001
 060,-0.00000954,-0.00001065,0.00000768,0.00000764,0.00001028,-0.000011
 50,-0.00000384,0.00000655,0.00000399,-0.00000223,-0.00000400,0.0000020
 1,0.00000476,-0.00000372,0.00000349,-0.00000209,-0.00000969,-0.0000021
 1,-0.00000019,0.00000353,0.00000693,0.00000225,0.00012998,0.00004807,0
 .00001233,0.00000827,-0.00002909,0.00007961,-0.00017589,0.00039656,-0.
 00003991,0.00018657,0.00001005,-0.00053823,-0.00156201,0.00086186,-0.0
 0017876,-0.00020532,0.00020974,0.00093799,0.00023095,-0.00074963,-0.00
 000916,-0.00002079,0.00000788,-0.00571776,0.00946347,-0.00181238,-0.00
 011849,0.00074507,0.00127242,-0.00021094,0.00169509,0.00106761,0.00009
 642,-0.00016178,-0.00038704,0.00002384,-0.00003864,0.00004128,-0.00009
 326,0.00003940,-0.00001915,0.00003816,-0.00000048,0.00001711,0.0000506
 2,-0.00003243,-0.00001158,-0.00001670,0.00004670,0.00003818,-0.0000065
 5,-0.00002975,0.00003363,-0.00001145,-0.00001000,-0.00003797,-0.000007
 48,0.00000890,0.00000710,-0.00000405,-0.00000900,-0.00000470,-0.000013
 25,0.00000868,-0.00000465,0.00016575,0.00026037,0.00028187,-0.00005350
 ,0.00003351,0.00004828,-0.19353405,0.09894709,-0.24875826,-0.03098769,
 0.01367592,-0.01352212,0.23008495,-0.12322001,0.26100531\\-0.00000060,
 0.00000175,0.00000162,0.00000185,0.00000052,-0.00000143,-0.00000111,0.
 00000375,0.00000221,-0.00000113,0.00000057,-0.00000077,0.00000070,0.00
 000023,-0.00000046,0.00000068,0.00000212,-0.00000044,0.00000013,0.0000
 0207,-0.00000001,0.00000081,0.00000030,-0.00000002,0.00000106,0.000001
 10,-0.00000081,0.00000037,0.00000169,-0.00000055,0.00000236,-0.0000000
 5,-0.00000231,0.00000077,0.00000145,0.00000103,-0.00000198,-0.00000090
 ,0.00000247,0.00000136,-0.00000376,-0.00000355,0.00000059,-0.00000116,
 0.00000094,0.00000009,0.00000043,0.00000088,-0.00000205,-0.00000152,0.
 00000161,-0.00000216,0.00000037,0.00000023,-0.00000077,0.00000140,-0.0
 0000001,-0.00000053,0.00000168,0.00000135,0.00000032,0.00000215,-0.000
 00090,0.00000057,-0.00000115,-0.00000029,-0.00000029,0.00000058,0.0000
 0044,-0.00000155,0.00000008,0.,-0.00000068,0.00000017,0.00000036,0.000
 00029,0.00000015,-0.00000018,-0.00000020,0.00000020,0.00000073,0.00000
 051,0.00000078,-0.00000003,-0.00000022,0.00000142,0.00000058,0.0000001
 0,0.00000085,0.00000024,-0.00000045,0.00000120,0.00000026,0.00000044,0
 .00000056,0.00000012,-0.00000038,0.00000026,0.00000005,-0.00000022,0.0
 0000081,0.00000020,0.00000159,0.00000520,0.00000012,0.00000002,-0.0000
 0173,0.00000020,-0.00000274,0.00000054,0.00000141,0.00000011,-0.000001
 14,-0.00000065,0.00000018,-0.00000133,-0.00000282,0.00000068,-0.000000
 70,-0.00000090,0.00000083,-0.00000012,-0.00000015,0.00000047,-0.000000
 51,0.00000013,-0.00000098,-0.00000129,0.00000048,0.00000168,-0.0000005
 0,-0.00000070,0.00000017,-0.00000247,0.00000012,0.00000060,-0.00000226
 ,0.00000112,-0.00000054,0.00000140,-0.00000033,-0.00000058,-0.00000242
 ,0.00000068,0.00000015,-0.00000126,0.00000033,-0.00000084,-0.00000221,
 -0.00000016,-0.00000047,-0.00000098,-0.00000032,0.00000031,-0.00000098
 ,-0.00000075,-0.00000043,-0.00000084,0.00000031,-0.00000059,-0.0000011
 0,0.00000080,-0.00000054,-0.00000087,-0.00000043,-0.00000094,-0.000001
 09,0.00000012,0.00000007,-0.00000137,-0.00000117,0.00000029,0.00000073
 ,0.00000104,-0.00000262,-0.00000159,-0.00000439,0.00000216,-0.00000120
 ,0.00000344,0.00000330,-0.00000001,-0.00000105\\\@
 The archive entry for this job was punched.


 WE DON'T KNOW ONE MILLIONTH OF ONE PERCENT ABOUT
 ANYTHING.
                                     T. A. EDISON.
 Job cpu time:       0 days 12 hours 49 minutes 48.6 seconds.
 Elapsed time:       0 days  0 hours  9 minutes  1.0 seconds.
 File lengths (MBytes):  RWF=   4644 Int=      0 D2E=      0 Chk=     40 Scr=      1
 Normal termination of Gaussian 16 at Thu Nov 20 13:56:10 2025.
