 Entering Gaussian System, Link 0=g16
 Initial command:
 /public/software/g16/l1.exe "/tmp/Gau-72600.inp" -scrdir="/tmp/"
 Entering Link 1 = /public/software/g16/l1.exe PID=     72601.
  
 Copyright (c) 1988-2021, Gaussian, Inc.  All Rights Reserved.
  
 This is part of the Gaussian(R) 16 program.  It is based on
 the Gaussian(R) 09 system (copyright 2009, Gaussian, Inc.),
 the Gaussian(R) 03 system (copyright 2003, Gaussian, Inc.),
 the Gaussian(R) 98 system (copyright 1998, Gaussian, Inc.),
 the Gaussian(R) 94 system (copyright 1995, Gaussian, Inc.),
 the Gaussian 92(TM) system (copyright 1992, Gaussian, Inc.),
 the Gaussian 90(TM) system (copyright 1990, Gaussian, Inc.),
 the Gaussian 88(TM) system (copyright 1988, Gaussian, Inc.),
 the Gaussian 86(TM) system (copyright 1986, Carnegie Mellon
 University), and the Gaussian 82(TM) system (copyright 1983,
 Carnegie Mellon University). Gaussian is a federally registered
 trademark of Gaussian, Inc.
  
 This software contains proprietary and confidential information,
 including trade secrets, belonging to Gaussian, Inc.
  
 This software is provided under written license and may be
 used, copied, transmitted, or stored only in accord with that
 written license.
  
 The following legend is applicable only to US Government
 contracts under FAR:
  
                    RESTRICTED RIGHTS LEGEND
  
 Use, reproduction and disclosure by the US Government is
 subject to restrictions as set forth in subparagraphs (a)
 and (c) of the Commercial Computer Software - Restricted
 Rights clause in FAR 52.227-19.
  
 Gaussian, Inc.
 340 Quinnipiac St., Bldg. 40, Wallingford CT 06492
  
  
 ---------------------------------------------------------------
 Warning -- This program may not be used in any manner that
 competes with the business of Gaussian, Inc. or will provide
 assistance to any competitor of Gaussian, Inc.  The licensee
 of this program is prohibited from giving any competitor of
 Gaussian, Inc. access to this program.  By using this program,
 the user acknowledges that Gaussian, Inc. is engaged in the
 business of creating and licensing software in the field of
 computational chemistry and represents and warrants to the
 licensee that it is not a competitor of Gaussian, Inc. and that
 it will not use this program in any manner prohibited above.
 ---------------------------------------------------------------
  

 Cite this work as:
 Gaussian 16, Revision C.02,
 M. J. Frisch, G. W. Trucks, H. B. Schlegel, G. E. Scuseria, 
 M. A. Robb, J. R. Cheeseman, G. Scalmani, V. Barone, 
 G. A. Petersson, H. Nakatsuji, X. Li, M. Caricato, A. V. Marenich, 
 J. Bloino, B. G. Janesko, R. Gomperts, B. Mennucci, H. P. Hratchian, 
 J. V. Ortiz, A. F. Izmaylov, J. L. Sonnenberg, D. Williams-Young, 
 F. Ding, F. Lipparini, F. Egidi, J. Goings, B. Peng, A. Petrone, 
 T. Henderson, D. Ranasinghe, V. G. Zakrzewski, J. Gao, N. Rega, 
 G. Zheng, W. Liang, M. Hada, M. Ehara, K. Toyota, R. Fukuda, 
 J. Hasegawa, M. Ishida, T. Nakajima, Y. Honda, O. Kitao, H. Nakai, 
 T. Vreven, K. Throssell, J. A. Montgomery, Jr., J. E. Peralta, 
 F. Ogliaro, M. J. Bearpark, J. J. Heyd, E. N. Brothers, K. N. Kudin, 
 V. N. Staroverov, T. A. Keith, R. Kobayashi, J. Normand, 
 K. Raghavachari, A. P. Rendell, J. C. Burant, S. S. Iyengar, 
 J. Tomasi, M. Cossi, J. M. Millam, M. Klene, C. Adamo, R. Cammi, 
 J. W. Ochterski, R. L. Martin, K. Morokuma, O. Farkas, 
 J. B. Foresman, and D. J. Fox, Gaussian, Inc., Wallingford CT, 2019.
 
 ******************************************
 Gaussian 16:  ES64L-G16RevC.02  7-Dec-2021
                20-Nov-2025 
 ******************************************
 %nprocshared=96
 Will use up to   96 processors via shared memory.
 %mem=10GB
 %chk=M1.chk
 -------------------------
 # opt freq 6-31g(d) m062x
 -------------------------
 1/18=20,19=15,26=3,38=1/1,3;
 2/9=110,12=2,17=6,18=5,40=1/2;
 3/5=1,6=6,7=1,11=2,25=1,30=1,71=1,74=-55/1,2,3;
 4//1;
 5/5=2,38=5/2;
 6/7=2,8=2,9=2,10=2,28=1/1;
 7//1,2,3,16;
 1/18=20,19=15,26=3/3(2);
 2/9=110/2;
 99//99;
 2/9=110/2;
 3/5=1,6=6,7=1,11=2,25=1,30=1,71=1,74=-55/1,2,3;
 4/5=5,16=3,69=1/1;
 5/5=2,38=5/2;
 7//1,2,3,16;
 1/18=20,19=15,26=3/3(-5);
 2/9=110/2;
 6/7=2,8=2,9=2,10=2,19=2,28=1/1;
 99/9=1/99;
 -------------------
 Title Card Required
 -------------------
 Symbolic Z-matrix:
 Charge =  0 Multiplicity = 1
 C                     3.15187   1.67155   0.74588 
 C                     2.21869   0.68688   0.37964 
 C                     2.59787  -0.3548   -0.49905 
 C                     3.89617  -0.43279  -1.01869 
 C                     4.80096   0.54956  -0.64451 
 C                     4.43349   1.5929    0.2297 
 H                     2.85037   2.46994   1.42398 
 H                     4.18549  -1.23729  -1.69482 
 H                     5.8183    0.51295  -1.03588 
 H                     5.1726    2.34702   0.50159 
 S                     1.2474   -1.41641  -0.77357 
 N                     0.9072    0.62418   0.81089 
 C                     0.32783  -0.39661   0.29629 
 S                    -1.3882   -0.79465   0.63357 
 O                    -1.59396  -0.74339   2.07601 
 O                    -1.6595   -2.02949  -0.09837 
 C                    -2.28356   0.5557   -0.11933 
 C                    -3.78166   0.35305   0.11331 
 H                    -2.01764   0.54362  -1.18501 
 H                    -1.89837   1.4705    0.35281 
 C                    -4.57127   1.48603  -0.47775 
 H                    -4.0931   -0.60301  -0.33172 
 H                    -3.95762   0.29431   1.19884 
 C                    -5.46699   1.34579  -1.45358 
 H                    -4.37044   2.48079  -0.0644 
 H                    -6.01539   2.20332  -1.84797 
 H                    -5.68436   0.36514  -1.88624 
 

 GradGradGradGradGradGradGradGradGradGradGradGradGradGradGradGradGradGrad
 Berny optimization.
 Initialization pass.
                           ----------------------------
                           !    Initial Parameters    !
                           ! (Angstroms and Degrees)  !
 --------------------------                            --------------------------
 ! Name  Definition              Value          Derivative Info.                !
 --------------------------------------------------------------------------------
 ! R1    R(1,2)                  1.4052         estimate D2E/DX2                !
 ! R2    R(1,6)                  1.3839         estimate D2E/DX2                !
 ! R3    R(1,7)                  1.09           estimate D2E/DX2                !
 ! R4    R(2,3)                  1.4146         estimate D2E/DX2                !
 ! R5    R(2,12)                 1.382          estimate D2E/DX2                !
 ! R6    R(3,4)                  1.4006         estimate D2E/DX2                !
 ! R7    R(3,11)                 1.7396         estimate D2E/DX2                !
 ! R8    R(4,5)                  1.387          estimate D2E/DX2                !
 ! R9    R(4,8)                  1.09           estimate D2E/DX2                !
 ! R10   R(5,6)                  1.4099         estimate D2E/DX2                !
 ! R11   R(5,9)                  1.0906         estimate D2E/DX2                !
 ! R12   R(6,10)                 1.0904         estimate D2E/DX2                !
 ! R13   R(11,13)                1.7407         estimate D2E/DX2                !
 ! R14   R(12,13)                1.2816         estimate D2E/DX2                !
 ! R15   R(13,14)                1.7936         estimate D2E/DX2                !
 ! R16   R(14,15)                1.4579         estimate D2E/DX2                !
 ! R17   R(14,16)                1.4609         estimate D2E/DX2                !
 ! R18   R(14,17)                1.7866         estimate D2E/DX2                !
 ! R19   R(17,18)                1.5295         estimate D2E/DX2                !
 ! R20   R(17,19)                1.0984         estimate D2E/DX2                !
 ! R21   R(17,20)                1.0992         estimate D2E/DX2                !
 ! R22   R(18,21)                1.5022         estimate D2E/DX2                !
 ! R23   R(18,22)                1.0996         estimate D2E/DX2                !
 ! R24   R(18,23)                1.1013         estimate D2E/DX2                !
 ! R25   R(21,24)                1.332          estimate D2E/DX2                !
 ! R26   R(21,25)                1.0958         estimate D2E/DX2                !
 ! R27   R(24,26)                1.0916         estimate D2E/DX2                !
 ! R28   R(24,27)                1.0937         estimate D2E/DX2                !
 ! A1    A(2,1,6)              118.5539         estimate D2E/DX2                !
 ! A2    A(2,1,7)              119.453          estimate D2E/DX2                !
 ! A3    A(6,1,7)              121.9931         estimate D2E/DX2                !
 ! A4    A(1,2,3)              119.9939         estimate D2E/DX2                !
 ! A5    A(1,2,12)             125.4989         estimate D2E/DX2                !
 ! A6    A(3,2,12)             114.507          estimate D2E/DX2                !
 ! A7    A(2,3,4)              121.3287         estimate D2E/DX2                !
 ! A8    A(2,3,11)             109.8359         estimate D2E/DX2                !
 ! A9    A(4,3,11)             128.8354         estimate D2E/DX2                !
 ! A10   A(3,4,5)              117.7215         estimate D2E/DX2                !
 ! A11   A(3,4,8)              121.1505         estimate D2E/DX2                !
 ! A12   A(5,4,8)              121.1279         estimate D2E/DX2                !
 ! A13   A(4,5,6)              121.425          estimate D2E/DX2                !
 ! A14   A(4,5,9)              119.2047         estimate D2E/DX2                !
 ! A15   A(6,5,9)              119.3703         estimate D2E/DX2                !
 ! A16   A(1,6,5)              120.9768         estimate D2E/DX2                !
 ! A17   A(1,6,10)             119.699          estimate D2E/DX2                !
 ! A18   A(5,6,10)             119.3241         estimate D2E/DX2                !
 ! A19   A(3,11,13)             87.4548         estimate D2E/DX2                !
 ! A20   A(2,12,13)            109.8674         estimate D2E/DX2                !
 ! A21   A(11,13,12)           118.333          estimate D2E/DX2                !
 ! A22   A(11,13,14)           119.4051         estimate D2E/DX2                !
 ! A23   A(12,13,14)           122.2605         estimate D2E/DX2                !
 ! A24   A(13,14,15)           108.2566         estimate D2E/DX2                !
 ! A25   A(13,14,16)           105.7265         estimate D2E/DX2                !
 ! A26   A(13,14,17)           103.4444         estimate D2E/DX2                !
 ! A27   A(15,14,16)           119.9481         estimate D2E/DX2                !
 ! A28   A(15,14,17)           108.6406         estimate D2E/DX2                !
 ! A29   A(16,14,17)           109.5516         estimate D2E/DX2                !
 ! A30   A(14,17,18)           109.0633         estimate D2E/DX2                !
 ! A31   A(14,17,19)           106.2132         estimate D2E/DX2                !
 ! A32   A(14,17,20)           105.8072         estimate D2E/DX2                !
 ! A33   A(18,17,19)           112.5338         estimate D2E/DX2                !
 ! A34   A(18,17,20)           112.8412         estimate D2E/DX2                !
 ! A35   A(19,17,20)           109.9411         estimate D2E/DX2                !
 ! A36   A(17,18,21)           110.7975         estimate D2E/DX2                !
 ! A37   A(17,18,22)           109.3326         estimate D2E/DX2                !
 ! A38   A(17,18,23)           108.2691         estimate D2E/DX2                !
 ! A39   A(21,18,22)           110.344          estimate D2E/DX2                !
 ! A40   A(21,18,23)           110.1266         estimate D2E/DX2                !
 ! A41   A(22,18,23)           107.8974         estimate D2E/DX2                !
 ! A42   A(18,21,24)           124.2171         estimate D2E/DX2                !
 ! A43   A(18,21,25)           116.0997         estimate D2E/DX2                !
 ! A44   A(24,21,25)           119.6816         estimate D2E/DX2                !
 ! A45   A(21,24,26)           121.3187         estimate D2E/DX2                !
 ! A46   A(21,24,27)           121.1895         estimate D2E/DX2                !
 ! A47   A(26,24,27)           117.4911         estimate D2E/DX2                !
 ! D1    D(6,1,2,3)             -0.024          estimate D2E/DX2                !
 ! D2    D(6,1,2,12)           179.7999         estimate D2E/DX2                !
 ! D3    D(7,1,2,3)           -179.9659         estimate D2E/DX2                !
 ! D4    D(7,1,2,12)            -0.142          estimate D2E/DX2                !
 ! D5    D(2,1,6,5)             -0.0295         estimate D2E/DX2                !
 ! D6    D(2,1,6,10)          -179.9921         estimate D2E/DX2                !
 ! D7    D(7,1,6,5)            179.9108         estimate D2E/DX2                !
 ! D8    D(7,1,6,10)            -0.0518         estimate D2E/DX2                !
 ! D9    D(1,2,3,4)              0.1014         estimate D2E/DX2                !
 ! D10   D(1,2,3,11)          -179.9049         estimate D2E/DX2                !
 ! D11   D(12,2,3,4)          -179.741          estimate D2E/DX2                !
 ! D12   D(12,2,3,11)            0.2526         estimate D2E/DX2                !
 ! D13   D(1,2,12,13)         -179.7793         estimate D2E/DX2                !
 ! D14   D(3,2,12,13)            0.0531         estimate D2E/DX2                !
 ! D15   D(2,3,4,5)             -0.1205         estimate D2E/DX2                !
 ! D16   D(2,3,4,8)            179.9409         estimate D2E/DX2                !
 ! D17   D(11,3,4,5)           179.8872         estimate D2E/DX2                !
 ! D18   D(11,3,4,8)            -0.0514         estimate D2E/DX2                !
 ! D19   D(2,3,11,13)           -0.3497         estimate D2E/DX2                !
 ! D20   D(4,3,11,13)          179.6434         estimate D2E/DX2                !
 ! D21   D(3,4,5,6)              0.0663         estimate D2E/DX2                !
 ! D22   D(3,4,5,9)           -179.9253         estimate D2E/DX2                !
 ! D23   D(8,4,5,6)           -179.9951         estimate D2E/DX2                !
 ! D24   D(8,4,5,9)              0.0134         estimate D2E/DX2                !
 ! D25   D(4,5,6,1)              0.0081         estimate D2E/DX2                !
 ! D26   D(4,5,6,10)           179.9708         estimate D2E/DX2                !
 ! D27   D(9,5,6,1)            179.9996         estimate D2E/DX2                !
 ! D28   D(9,5,6,10)            -0.0377         estimate D2E/DX2                !
 ! D29   D(3,11,13,12)           0.4303         estimate D2E/DX2                !
 ! D30   D(3,11,13,14)        -179.9913         estimate D2E/DX2                !
 ! D31   D(2,12,13,11)          -0.3566         estimate D2E/DX2                !
 ! D32   D(2,12,13,14)        -179.9222         estimate D2E/DX2                !
 ! D33   D(11,13,14,15)        131.6119         estimate D2E/DX2                !
 ! D34   D(11,13,14,16)          1.8939         estimate D2E/DX2                !
 ! D35   D(11,13,14,17)       -113.2429         estimate D2E/DX2                !
 ! D36   D(12,13,14,15)        -48.827          estimate D2E/DX2                !
 ! D37   D(12,13,14,16)       -178.545          estimate D2E/DX2                !
 ! D38   D(12,13,14,17)         66.3182         estimate D2E/DX2                !
 ! D39   D(13,14,17,18)       -179.1654         estimate D2E/DX2                !
 ! D40   D(13,14,17,19)         59.3184         estimate D2E/DX2                !
 ! D41   D(13,14,17,20)        -57.5191         estimate D2E/DX2                !
 ! D42   D(15,14,17,18)        -64.2948         estimate D2E/DX2                !
 ! D43   D(15,14,17,19)        174.189          estimate D2E/DX2                !
 ! D44   D(15,14,17,20)         57.3516         estimate D2E/DX2                !
 ! D45   D(16,14,17,18)         68.4619         estimate D2E/DX2                !
 ! D46   D(16,14,17,19)        -53.0544         estimate D2E/DX2                !
 ! D47   D(16,14,17,20)       -169.8918         estimate D2E/DX2                !
 ! D48   D(14,17,18,21)        178.6822         estimate D2E/DX2                !
 ! D49   D(14,17,18,22)        -59.4904         estimate D2E/DX2                !
 ! D50   D(14,17,18,23)         57.8182         estimate D2E/DX2                !
 ! D51   D(19,17,18,21)        -63.7235         estimate D2E/DX2                !
 ! D52   D(19,17,18,22)         58.1039         estimate D2E/DX2                !
 ! D53   D(19,17,18,23)        175.4125         estimate D2E/DX2                !
 ! D54   D(20,17,18,21)         61.4058         estimate D2E/DX2                !
 ! D55   D(20,17,18,22)       -176.7668         estimate D2E/DX2                !
 ! D56   D(20,17,18,23)        -59.4582         estimate D2E/DX2                !
 ! D57   D(17,18,21,24)        117.8807         estimate D2E/DX2                !
 ! D58   D(17,18,21,25)        -61.6523         estimate D2E/DX2                !
 ! D59   D(22,18,21,24)         -3.3519         estimate D2E/DX2                !
 ! D60   D(22,18,21,25)        177.1151         estimate D2E/DX2                !
 ! D61   D(23,18,21,24)       -122.3616         estimate D2E/DX2                !
 ! D62   D(23,18,21,25)         58.1053         estimate D2E/DX2                !
 ! D63   D(18,21,24,26)        179.9591         estimate D2E/DX2                !
 ! D64   D(18,21,24,27)          0.2882         estimate D2E/DX2                !
 ! D65   D(25,21,24,26)         -0.5236         estimate D2E/DX2                !
 ! D66   D(25,21,24,27)        179.8055         estimate D2E/DX2                !
 --------------------------------------------------------------------------------
 Trust Radius=3.00D-01 FncErr=1.00D-07 GrdErr=1.00D-06 EigMax=2.50D+02 EigMin=1.00D-04
 Number of steps in this run=    151 maximum allowed number of steps=    162.
 GradGradGradGradGradGradGradGradGradGradGradGradGradGradGradGradGradGrad

                          Input orientation:                          
 ---------------------------------------------------------------------
 Center     Atomic      Atomic             Coordinates (Angstroms)
 Number     Number       Type             X           Y           Z
 ---------------------------------------------------------------------
      1          6           0        3.151867    1.671548    0.745878
      2          6           0        2.218690    0.686884    0.379644
      3          6           0        2.597874   -0.354800   -0.499052
      4          6           0        3.896165   -0.432790   -1.018691
      5          6           0        4.800957    0.549555   -0.644514
      6          6           0        4.433493    1.592900    0.229704
      7          1           0        2.850366    2.469939    1.423982
      8          1           0        4.185486   -1.237287   -1.694822
      9          1           0        5.818296    0.512949   -1.035883
     10          1           0        5.172601    2.347024    0.501592
     11         16           0        1.247399   -1.416412   -0.773569
     12          7           0        0.907195    0.624176    0.810894
     13          6           0        0.327832   -0.396614    0.296293
     14         16           0       -1.388200   -0.794652    0.633574
     15          8           0       -1.593960   -0.743387    2.076006
     16          8           0       -1.659501   -2.029491   -0.098374
     17          6           0       -2.283563    0.555699   -0.119334
     18          6           0       -3.781664    0.353048    0.113309
     19          1           0       -2.017640    0.543616   -1.185008
     20          1           0       -1.898366    1.470501    0.352806
     21          6           0       -4.571272    1.486032   -0.477750
     22          1           0       -4.093104   -0.603008   -0.331719
     23          1           0       -3.957615    0.294310    1.198840
     24          6           0       -5.466993    1.345794   -1.453581
     25          1           0       -4.370438    2.480788   -0.064400
     26          1           0       -6.015386    2.203320   -1.847967
     27          1           0       -5.684357    0.365135   -1.886238
 ---------------------------------------------------------------------
                    Distance matrix (angstroms):
                    1          2          3          4          5
     1  C    0.000000
     2  C    1.405173   0.000000
     3  C    2.441894   1.414564   0.000000
     4  C    2.845333   2.454166   1.400595   0.000000
     5  C    2.431369   2.781342   2.385915   1.386960   0.000000
     6  C    1.383903   2.397645   2.773827   2.439392   1.409913
     7  H    1.090026   2.160773   3.426509   3.935249   3.430941
     8  H    3.935315   3.445886   2.174663   1.089989   2.162118
     9  H    3.409819   3.871839   3.378209   2.142266   1.090637
    10  H    2.144600   3.390653   3.863982   3.415833   2.163925
    11  S    3.933346   2.587887   1.739587   2.836117   4.063183
    12  N    2.477855   1.382001   2.352179   3.660396   4.157543
    13  C    3.529107   2.180885   2.405704   3.803090   4.667890
    14  S    5.167878   3.907568   4.167145   5.548463   6.461120
    15  O    5.488536   4.411306   4.934916   6.309920   7.068797
    16  O    6.128598   4.758945   4.592426   5.853363   6.977626
    17  C    5.615836   4.531718   4.980123   6.322578   7.103962
    18  C    7.086074   6.015532   6.447832   7.800514   8.618254
    19  H    5.632438   4.518313   4.751911   5.996175   6.839988
    20  H    5.069495   4.191053   4.926820   6.251409   6.835475
    21  C    7.821672   6.890381   7.401741   8.698965   9.420376
    22  H    7.669708   6.481404   6.697671   8.020556   8.973882
    23  H    7.255804   6.242751   6.802839   8.193167   8.954088
    24  C    8.901038   7.928720   8.297302   9.540504  10.330507
    25  H    7.608974   6.843382   7.535705   8.816821   9.390457
    26  H    9.541978   8.663823   9.085802  10.289588  11.008020
    27  H    9.312014   8.227752   8.428401   9.652757  10.560194
                    6          7          8          9         10
     6  C    0.000000
     7  H    2.168361   0.000000
     8  H    3.431511   5.025237   0.000000
     9  H    2.164644   4.323119   2.482659   0.000000
    10  H    1.090370   2.501737   4.318092   2.478827   0.000000
    11  S    4.495966   4.743676   3.084339   4.968334   5.585400
    12  N    3.702835   2.749297   4.526682   5.248035   4.610592
    13  C    4.562790   3.981455   4.421851   5.722516   5.571488
    14  S    6.305206   5.408118   6.056676   7.512023   7.275415
    15  O    6.722891   5.522919   6.918459   8.136570   7.603668
    16  O    7.096050   6.549911   6.110655   7.953639   8.135813
    17  C    6.805619   5.692395   6.895329   8.153650   7.693424
    18  C    8.309006   7.083990   8.323099   9.669821   9.181806
    19  H    6.687266   5.849362   6.473816   7.837415   7.602399
    20  H    6.334238   4.969582   6.966933   7.898876   7.126640
    21  C    9.033145   7.724336   9.250867  10.449953   9.830742
    22  H    8.822702   7.793412   8.414001   9.998853   9.759630
    23  H    8.546125   7.150710   8.776626  10.030465   9.384063
    24  C   10.045603   8.872572   9.995042  11.323685  10.863983
    25  H    8.853476   7.372612   9.470279  10.422402   9.560744
    26  H   10.670914   9.454009  10.766570  11.981355  11.432941
    27  H   10.409395   9.393043  10.000910  11.534989  11.291729
                   11         12         13         14         15
    11  S    0.000000
    12  N    2.605813   0.000000
    13  C    1.740746   1.281596   0.000000
    14  S    3.051724   2.704321   1.793588   0.000000
    15  O    4.079995   3.118736   2.642142   1.457935   0.000000
    16  O    3.046608   3.802190   2.602219   1.460883   2.527111
    17  C    4.096943   3.324297   2.810521   1.786615   2.642479
    18  C    5.404537   4.748214   4.181320   2.704914   3.136941
    19  H    3.830336   3.541860   2.929082   2.344013   3.531302
    20  H    4.415747   2.966021   2.906075   2.338807   2.821946
    21  C    6.509118   5.693593   5.305160   4.070443   4.511803
    22  H    5.420132   5.273949   4.470086   2.878372   3.473121
    23  H    5.823155   4.891389   4.433624   2.847325   2.726371
    24  C    7.292137   6.802856   6.299051   5.057102   5.641192
    25  H    6.873949   5.662734   5.521167   4.484353   4.762927
    26  H    8.185648   7.581910   7.182891   6.046216   6.605275
    27  H    7.243009   7.126723   6.441282   5.113856   5.801685
                   16         17         18         19         20
    16  O    0.000000
    17  C    2.659530   0.000000
    18  C    3.197636   1.529541   0.000000
    19  H    2.816011   1.098418   2.198573   0.000000
    20  H    3.537028   1.099161   2.202923   1.799504   0.000000
    21  C    4.580528   2.495515   1.502160   2.812365   2.799016
    22  H    2.830499   2.159201   1.099585   2.520000   3.095947
    23  H    3.516268   2.146708   1.101266   3.083567   2.517877
    24  C    5.265561   3.541002   2.506197   3.551571   4.001710
    25  H    5.262409   2.839724   2.214839   3.247161   2.702939
    26  H    6.320720   4.430500   3.501375   4.379053   4.725492
    27  H    5.012999   3.837143   2.760177   3.737431   4.535293
                   21         22         23         24         25
    21  C    0.000000
    22  H    2.148036   0.000000
    23  H    2.146562   1.779367   0.000000
    24  C    1.332002   2.635142   3.227875   0.000000
    25  H    1.095779   3.107760   2.558688   2.102491   0.000000
    26  H    2.116001   3.724198   4.142677   1.091616   2.442121
    27  H    2.116414   2.426091   3.536151   1.093678   3.085687
                   26         27
    26  H    0.000000
    27  H    1.868146   0.000000
 Stoichiometry    C11H11NO2S2
 Framework group  C1[X(C11H11NO2S2)]
 Deg. of freedom    75
 Full point group                 C1      NOp   1
 Largest Abelian subgroup         C1      NOp   1
 Largest concise Abelian subgroup C1      NOp   1
                         Standard orientation:                         
 ---------------------------------------------------------------------
 Center     Atomic      Atomic             Coordinates (Angstroms)
 Number     Number       Type             X           Y           Z
 ---------------------------------------------------------------------
      1          6           0        3.151867    1.671548    0.745878
      2          6           0        2.218690    0.686884    0.379644
      3          6           0        2.597874   -0.354800   -0.499052
      4          6           0        3.896165   -0.432790   -1.018691
      5          6           0        4.800957    0.549555   -0.644514
      6          6           0        4.433493    1.592900    0.229704
      7          1           0        2.850366    2.469939    1.423982
      8          1           0        4.185486   -1.237287   -1.694822
      9          1           0        5.818296    0.512949   -1.035883
     10          1           0        5.172601    2.347024    0.501592
     11         16           0        1.247399   -1.416412   -0.773569
     12          7           0        0.907195    0.624176    0.810894
     13          6           0        0.327832   -0.396614    0.296293
     14         16           0       -1.388200   -0.794652    0.633574
     15          8           0       -1.593960   -0.743387    2.076006
     16          8           0       -1.659501   -2.029491   -0.098374
     17          6           0       -2.283563    0.555699   -0.119334
     18          6           0       -3.781664    0.353048    0.113309
     19          1           0       -2.017640    0.543616   -1.185008
     20          1           0       -1.898366    1.470501    0.352806
     21          6           0       -4.571272    1.486032   -0.477750
     22          1           0       -4.093104   -0.603008   -0.331719
     23          1           0       -3.957615    0.294310    1.198840
     24          6           0       -5.466993    1.345794   -1.453581
     25          1           0       -4.370438    2.480788   -0.064400
     26          1           0       -6.015386    2.203320   -1.847967
     27          1           0       -5.684357    0.365135   -1.886238
 ---------------------------------------------------------------------
 Rotational constants (GHZ):           0.9920677           0.2099477           0.1985180
 Standard basis: 6-31G(d) (6D, 7F)
 There are   270 symmetry adapted cartesian basis functions of A   symmetry.
 There are   270 symmetry adapted basis functions of A   symmetry.
   270 basis functions,   540 primitive gaussians,   270 cartesian basis functions
    66 alpha electrons       66 beta electrons
       nuclear repulsion energy      1309.6294372390 Hartrees.
 NAtoms=   27 NActive=   27 NUniq=   27 SFac= 1.00D+00 NAtFMM=   60 NAOKFM=F Big=F
 Integral buffers will be    131072 words long.
 Raffenetti 2 integral format.
 Two-electron integral symmetry is turned on.
 One-electron integrals computed using PRISM.
 NBasis=   270 RedAO= T EigKep=  4.68D-04  NBF=   270
 NBsUse=   270 1.00D-06 EigRej= -1.00D+00 NBFU=   270
 ExpMin= 1.17D-01 ExpMax= 2.19D+04 ExpMxC= 3.30D+03 IAcc=3 IRadAn=         5 AccDes= 0.00D+00
 Harris functional with IExCor= 1009 and IRadAn=       5 diagonalized for initial guess.
 HarFok:  IExCor= 1009 AccDes= 0.00D+00 IRadAn=         5 IDoV= 1 UseB2=F ITyADJ=14
 ICtDFT=  3500011 ScaDFX=  1.000000  1.000000  1.000000  1.000000
 FoFCou: FMM=F IPFlag=           0 FMFlag=      100000 FMFlg1=           0
         NFxFlg=           0 DoJE=T BraDBF=F KetDBF=T FulRan=T
         wScrn=  0.000000 ICntrl=       500 IOpCl=  0 I1Cent=   200000004 NGrid=           0
         NMat0=    1 NMatS0=      1 NMatT0=    0 NMatD0=    1 NMtDS0=    0 NMtDT0=    0
 Petite list used in FoFCou.
 Requested convergence on RMS density matrix=1.00D-08 within 128 cycles.
 Requested convergence on MAX density matrix=1.00D-06.
 Requested convergence on             energy=1.00D-06.
 No special actions if energy rises.
 Integral accuracy reduced to 1.0D-05 until final iterations.
 Initial convergence to 1.0D-05 achieved.  Increase integral accuracy.
 SCF Done:  E(RM062X) =  -1426.94790769     A.U. after   16 cycles
            NFock= 16  Conv=0.66D-08     -V/T= 2.0055

 **********************************************************************

            Population analysis using the SCF Density.

 **********************************************************************

 Orbital symmetries:
       Occupied  (A) (A) (A) (A) (A) (A) (A) (A) (A) (A) (A) (A)
                 (A) (A) (A) (A) (A) (A) (A) (A) (A) (A) (A) (A)
                 (A) (A) (A) (A) (A) (A) (A) (A) (A) (A) (A) (A)
                 (A) (A) (A) (A) (A) (A) (A) (A) (A) (A) (A) (A)
                 (A) (A) (A) (A) (A) (A) (A) (A) (A) (A) (A) (A)
                 (A) (A) (A) (A) (A) (A)
       Virtual   (A) (A) (A) (A) (A) (A) (A) (A) (A) (A) (A) (A)
                 (A) (A) (A) (A) (A) (A) (A) (A) (A) (A) (A) (A)
                 (A) (A) (A) (A) (A) (A) (A) (A) (A) (A) (A) (A)
                 (A) (A) (A) (A) (A) (A) (A) (A) (A) (A) (A) (A)
                 (A) (A) (A) (A) (A) (A) (A) (A) (A) (A) (A) (A)
                 (A) (A) (A) (A) (A) (A) (A) (A) (A) (A) (A) (A)
                 (A) (A) (A) (A) (A) (A) (A) (A) (A) (A) (A) (A)
                 (A) (A) (A) (A) (A) (A) (A) (A) (A) (A) (A) (A)
                 (A) (A) (A) (A) (A) (A) (A) (A) (A) (A) (A) (A)
                 (A) (A) (A) (A) (A) (A) (A) (A) (A) (A) (A) (A)
                 (A) (A) (A) (A) (A) (A) (A) (A) (A) (A) (A) (A)
                 (A) (A) (A) (A) (A) (A) (A) (A) (A) (A) (A) (A)
                 (A) (A) (A) (A) (A) (A) (A) (A) (A) (A) (A) (A)
                 (A) (A) (A) (A) (A) (A) (A) (A) (A) (A) (A) (A)
                 (A) (A) (A) (A) (A) (A) (A) (A) (A) (A) (A) (A)
                 (A) (A) (A) (A) (A) (A) (A) (A) (A) (A) (A) (A)
                 (A) (A) (A) (A) (A) (A) (A) (A) (A) (A) (A) (A)
 The electronic state is 1-A.
 Alpha  occ. eigenvalues --  -90.14567 -89.97986 -19.63854 -19.63617 -14.79703
 Alpha  occ. eigenvalues --  -10.65122 -10.60896 -10.60737 -10.59758 -10.58201
 Alpha  occ. eigenvalues --  -10.57634 -10.57535 -10.57251 -10.57156 -10.56397
 Alpha  occ. eigenvalues --  -10.55160  -8.46052  -8.32536  -6.38193  -6.38179
 Alpha  occ. eigenvalues --   -6.38097  -6.24518  -6.24306  -6.24043  -1.23189
 Alpha  occ. eigenvalues --   -1.12155  -1.10725  -0.97421  -0.93337  -0.92059
 Alpha  occ. eigenvalues --   -0.87748  -0.85647  -0.84575  -0.78927  -0.73526
 Alpha  occ. eigenvalues --   -0.70015  -0.69616  -0.65525  -0.64503  -0.60017
 Alpha  occ. eigenvalues --   -0.58386  -0.57519  -0.57040  -0.56343  -0.53856
 Alpha  occ. eigenvalues --   -0.52582  -0.52212  -0.51435  -0.51053  -0.48505
 Alpha  occ. eigenvalues --   -0.47819  -0.47259  -0.44570  -0.43609  -0.42974
 Alpha  occ. eigenvalues --   -0.42288  -0.41836  -0.40094  -0.39448  -0.38283
 Alpha  occ. eigenvalues --   -0.37976  -0.37284  -0.35200  -0.32364  -0.31078
 Alpha  occ. eigenvalues --   -0.30148
 Alpha virt. eigenvalues --   -0.03488   0.01273   0.03869   0.04495   0.05233
 Alpha virt. eigenvalues --    0.08685   0.12331   0.13173   0.14308   0.14774
 Alpha virt. eigenvalues --    0.15229   0.16158   0.17273   0.17572   0.17759
 Alpha virt. eigenvalues --    0.18445   0.19895   0.20621   0.21266   0.21459
 Alpha virt. eigenvalues --    0.22860   0.23371   0.24143   0.26463   0.27280
 Alpha virt. eigenvalues --    0.28968   0.32348   0.33441   0.35036   0.37242
 Alpha virt. eigenvalues --    0.38212   0.39279   0.40404   0.41097   0.43186
 Alpha virt. eigenvalues --    0.45298   0.46413   0.48182   0.50987   0.53208
 Alpha virt. eigenvalues --    0.54513   0.54947   0.55959   0.56833   0.57171
 Alpha virt. eigenvalues --    0.57896   0.60034   0.61028   0.61678   0.62379
 Alpha virt. eigenvalues --    0.63542   0.63628   0.64700   0.65181   0.66103
 Alpha virt. eigenvalues --    0.66508   0.68886   0.69633   0.69859   0.71399
 Alpha virt. eigenvalues --    0.73311   0.73596   0.74809   0.75840   0.78158
 Alpha virt. eigenvalues --    0.78721   0.82318   0.84240   0.85208   0.85833
 Alpha virt. eigenvalues --    0.86440   0.88020   0.88973   0.89348   0.89845
 Alpha virt. eigenvalues --    0.90786   0.90967   0.91319   0.91831   0.93243
 Alpha virt. eigenvalues --    0.94111   0.95178   0.96293   0.97370   0.97779
 Alpha virt. eigenvalues --    0.98877   0.99436   0.99824   1.01898   1.02420
 Alpha virt. eigenvalues --    1.03980   1.05359   1.06462   1.08264   1.08759
 Alpha virt. eigenvalues --    1.11540   1.11842   1.14672   1.15800   1.16707
 Alpha virt. eigenvalues --    1.18811   1.19742   1.22152   1.24031   1.26395
 Alpha virt. eigenvalues --    1.28136   1.29447   1.30655   1.30918   1.32840
 Alpha virt. eigenvalues --    1.35902   1.37485   1.42164   1.43713   1.44829
 Alpha virt. eigenvalues --    1.46090   1.49744   1.50417   1.52021   1.52706
 Alpha virt. eigenvalues --    1.54622   1.59017   1.61096   1.63576   1.67459
 Alpha virt. eigenvalues --    1.68143   1.71303   1.73826   1.77235   1.78370
 Alpha virt. eigenvalues --    1.82243   1.84235   1.85427   1.86104   1.86833
 Alpha virt. eigenvalues --    1.89245   1.90649   1.91431   1.94058   1.94915
 Alpha virt. eigenvalues --    1.96199   1.97593   1.98750   1.99380   2.00622
 Alpha virt. eigenvalues --    2.02670   2.03896   2.07075   2.08224   2.10596
 Alpha virt. eigenvalues --    2.13625   2.14683   2.14849   2.15803   2.17268
 Alpha virt. eigenvalues --    2.19806   2.22331   2.25326   2.26459   2.26738
 Alpha virt. eigenvalues --    2.28979   2.30660   2.31417   2.34739   2.37904
 Alpha virt. eigenvalues --    2.39461   2.44175   2.45019   2.49089   2.50128
 Alpha virt. eigenvalues --    2.51558   2.56640   2.60215   2.63064   2.65556
 Alpha virt. eigenvalues --    2.66731   2.67481   2.73366   2.74725   2.79283
 Alpha virt. eigenvalues --    2.81223   2.81577   2.87432   2.90051   2.91806
 Alpha virt. eigenvalues --    3.00108   3.15957   3.37832   3.92662   3.94448
 Alpha virt. eigenvalues --    3.98915   4.03242   4.08966   4.11106   4.13035
 Alpha virt. eigenvalues --    4.14057   4.19391   4.22451   4.27513   4.35998
 Alpha virt. eigenvalues --    4.37958   4.39152   4.49478   4.70234
          Condensed to atoms (all electrons):
               1          2          3          4          5          6
     1  C    4.939913   0.529927  -0.079457  -0.037895  -0.040980   0.549127
     2  C    0.529927   4.609952   0.468608  -0.003531  -0.035383  -0.015777
     3  C   -0.079457   0.468608   5.277688   0.473557  -0.038936  -0.039297
     4  C   -0.037895  -0.003531   0.473557   4.929392   0.563921  -0.033488
     5  C   -0.040980  -0.035383  -0.038936   0.563921   4.858620   0.532707
     6  C    0.549127  -0.015777  -0.039297  -0.033488   0.532707   4.891113
     7  H    0.358028  -0.029875   0.006599   0.000014   0.003803  -0.039071
     8  H    0.000526   0.002290  -0.037071   0.368441  -0.031350   0.003478
     9  H    0.003761   0.000614   0.004418  -0.038035   0.370829  -0.036115
    10  H   -0.033821   0.002914   0.000597   0.004089  -0.036628   0.368914
    11  S    0.006320  -0.074734   0.286764  -0.053387   0.003052   0.000320
    12  N   -0.063130   0.389856  -0.088235   0.008247   0.000011   0.004398
    13  C    0.007581  -0.084377  -0.046337   0.003683  -0.000114  -0.000142
    14  S   -0.000325  -0.001343   0.002817  -0.000009   0.000001   0.000007
    15  O   -0.000001  -0.000007  -0.000023   0.000000  -0.000000  -0.000000
    16  O    0.000000  -0.000108   0.000200  -0.000000   0.000000   0.000000
    17  C    0.000005  -0.000237  -0.000065   0.000000  -0.000000  -0.000000
    18  C   -0.000000   0.000002   0.000000  -0.000000   0.000000   0.000000
    19  H    0.000001   0.000010  -0.000016  -0.000000   0.000000  -0.000000
    20  H   -0.000007   0.000101   0.000001  -0.000000   0.000000  -0.000000
    21  C    0.000000  -0.000000   0.000000   0.000000  -0.000000  -0.000000
    22  H   -0.000000   0.000000  -0.000000  -0.000000   0.000000  -0.000000
    23  H    0.000000   0.000000  -0.000000  -0.000000   0.000000  -0.000000
    24  C    0.000000  -0.000000  -0.000000   0.000000  -0.000000  -0.000000
    25  H    0.000000   0.000000   0.000000   0.000000   0.000000   0.000000
    26  H    0.000000  -0.000000   0.000000   0.000000  -0.000000  -0.000000
    27  H    0.000000   0.000000   0.000000   0.000000   0.000000  -0.000000
               7          8          9         10         11         12
     1  C    0.358028   0.000526   0.003761  -0.033821   0.006320  -0.063130
     2  C   -0.029875   0.002290   0.000614   0.002914  -0.074734   0.389856
     3  C    0.006599  -0.037071   0.004418   0.000597   0.286764  -0.088235
     4  C    0.000014   0.368441  -0.038035   0.004089  -0.053387   0.008247
     5  C    0.003803  -0.031350   0.370829  -0.036628   0.003052   0.000011
     6  C   -0.039071   0.003478  -0.036115   0.368914   0.000320   0.004398
     7  H    0.514363   0.000013  -0.000118  -0.004184  -0.000144  -0.002299
     8  H    0.000013   0.510410  -0.004179  -0.000131  -0.001944  -0.000107
     9  H   -0.000118  -0.004179   0.525053  -0.004188  -0.000122   0.000002
    10  H   -0.004184  -0.000131  -0.004188   0.524054   0.000016  -0.000087
    11  S   -0.000144  -0.001944  -0.000122   0.000016  15.301318  -0.080248
    12  N   -0.002299  -0.000107   0.000002  -0.000087  -0.080248   6.917647
    13  C   -0.000102  -0.000014   0.000000   0.000004   0.269492   0.346236
    14  S    0.000012   0.000001  -0.000000  -0.000000  -0.022795  -0.008474
    15  O    0.000000  -0.000000   0.000000   0.000000   0.000769  -0.000786
    16  O    0.000000   0.000000  -0.000000   0.000000   0.013798   0.002018
    17  C   -0.000001  -0.000000   0.000000   0.000000   0.001036  -0.002729
    18  C    0.000000   0.000000  -0.000000  -0.000000  -0.000050   0.000069
    19  H    0.000000  -0.000000   0.000000   0.000000   0.000417   0.000247
    20  H    0.000004   0.000000   0.000000  -0.000000   0.000276   0.003611
    21  C   -0.000000  -0.000000   0.000000   0.000000   0.000001  -0.000002
    22  H   -0.000000  -0.000000   0.000000  -0.000000  -0.000001  -0.000004
    23  H   -0.000000  -0.000000  -0.000000  -0.000000  -0.000003  -0.000002
    24  C   -0.000000  -0.000000   0.000000   0.000000   0.000000  -0.000000
    25  H   -0.000000  -0.000000  -0.000000  -0.000000  -0.000000  -0.000000
    26  H    0.000000  -0.000000   0.000000   0.000000   0.000000  -0.000000
    27  H   -0.000000   0.000000  -0.000000   0.000000   0.000000   0.000000
              13         14         15         16         17         18
     1  C    0.007581  -0.000325  -0.000001   0.000000   0.000005  -0.000000
     2  C   -0.084377  -0.001343  -0.000007  -0.000108  -0.000237   0.000002
     3  C   -0.046337   0.002817  -0.000023   0.000200  -0.000065   0.000000
     4  C    0.003683  -0.000009   0.000000  -0.000000   0.000000  -0.000000
     5  C   -0.000114   0.000001  -0.000000   0.000000  -0.000000   0.000000
     6  C   -0.000142   0.000007  -0.000000   0.000000  -0.000000   0.000000
     7  H   -0.000102   0.000012   0.000000   0.000000  -0.000001   0.000000
     8  H   -0.000014   0.000001  -0.000000   0.000000  -0.000000   0.000000
     9  H    0.000000  -0.000000   0.000000  -0.000000   0.000000  -0.000000
    10  H    0.000004  -0.000000   0.000000   0.000000   0.000000  -0.000000
    11  S    0.269492  -0.022795   0.000769   0.013798   0.001036  -0.000050
    12  N    0.346236  -0.008474  -0.000786   0.002018  -0.002729   0.000069
    13  C    5.793482   0.082053  -0.060760  -0.055361  -0.066114   0.003282
    14  S    0.082053  13.687910   0.478674   0.436873   0.205010  -0.025161
    15  O   -0.060760   0.478674   8.217822  -0.046928  -0.063763  -0.003024
    16  O   -0.055361   0.436873  -0.046928   8.264480  -0.058284  -0.004009
    17  C   -0.066114   0.205010  -0.063763  -0.058284   5.631323   0.302048
    18  C    0.003282  -0.025161  -0.003024  -0.004009   0.302048   5.108971
    19  H    0.000559  -0.010423   0.001704  -0.000154   0.343478  -0.026164
    20  H   -0.001052  -0.011160  -0.000305   0.001713   0.347058  -0.028036
    21  C   -0.000087   0.001955  -0.000079  -0.000022  -0.045303   0.376220
    22  H    0.000049   0.000681  -0.000292   0.005701  -0.041148   0.384224
    23  H    0.000096   0.000478   0.006645  -0.000238  -0.050610   0.385313
    24  C   -0.000000  -0.000076  -0.000001   0.000002  -0.001877  -0.040408
    25  H    0.000001  -0.000044   0.000007  -0.000001  -0.001272  -0.051508
    26  H   -0.000000   0.000003  -0.000000  -0.000000  -0.000133   0.004459
    27  H    0.000000  -0.000018   0.000000  -0.000002   0.000264  -0.009929
              19         20         21         22         23         24
     1  C    0.000001  -0.000007   0.000000  -0.000000   0.000000   0.000000
     2  C    0.000010   0.000101  -0.000000   0.000000   0.000000  -0.000000
     3  C   -0.000016   0.000001   0.000000  -0.000000  -0.000000  -0.000000
     4  C   -0.000000  -0.000000   0.000000  -0.000000  -0.000000   0.000000
     5  C    0.000000   0.000000  -0.000000   0.000000   0.000000  -0.000000
     6  C   -0.000000  -0.000000  -0.000000  -0.000000  -0.000000  -0.000000
     7  H    0.000000   0.000004  -0.000000  -0.000000  -0.000000  -0.000000
     8  H   -0.000000   0.000000  -0.000000  -0.000000  -0.000000  -0.000000
     9  H    0.000000   0.000000   0.000000   0.000000  -0.000000   0.000000
    10  H    0.000000  -0.000000   0.000000  -0.000000  -0.000000   0.000000
    11  S    0.000417   0.000276   0.000001  -0.000001  -0.000003   0.000000
    12  N    0.000247   0.003611  -0.000002  -0.000004  -0.000002  -0.000000
    13  C    0.000559  -0.001052  -0.000087   0.000049   0.000096  -0.000000
    14  S   -0.010423  -0.011160   0.001955   0.000681   0.000478  -0.000076
    15  O    0.001704  -0.000305  -0.000079  -0.000292   0.006645  -0.000001
    16  O   -0.000154   0.001713  -0.000022   0.005701  -0.000238   0.000002
    17  C    0.343478   0.347058  -0.045303  -0.041148  -0.050610  -0.001877
    18  C   -0.026164  -0.028036   0.376220   0.384224   0.385313  -0.040408
    19  H    0.488518  -0.021815  -0.002058  -0.002660   0.004336   0.000968
    20  H   -0.021815   0.476810  -0.003539   0.003934  -0.002862   0.000185
    21  C   -0.002058  -0.003539   4.845925  -0.040570  -0.033966   0.677932
    22  H   -0.002660   0.003934  -0.040570   0.503017  -0.023274  -0.002074
    23  H    0.004336  -0.002862  -0.033966  -0.023274   0.500166   0.000122
    24  C    0.000968   0.000185   0.677932  -0.002074   0.000122   5.011145
    25  H    0.000144   0.002405   0.377118   0.003699  -0.001209  -0.038029
    26  H   -0.000043  -0.000000  -0.029579   0.000087  -0.000146   0.376574
    27  H    0.000072   0.000011  -0.039703   0.005182   0.000118   0.381037
              25         26         27
     1  C    0.000000   0.000000   0.000000
     2  C    0.000000  -0.000000   0.000000
     3  C    0.000000   0.000000   0.000000
     4  C    0.000000   0.000000   0.000000
     5  C    0.000000  -0.000000   0.000000
     6  C    0.000000  -0.000000  -0.000000
     7  H   -0.000000   0.000000  -0.000000
     8  H   -0.000000  -0.000000   0.000000
     9  H   -0.000000   0.000000  -0.000000
    10  H   -0.000000   0.000000   0.000000
    11  S   -0.000000   0.000000   0.000000
    12  N   -0.000000  -0.000000   0.000000
    13  C    0.000001  -0.000000   0.000000
    14  S   -0.000044   0.000003  -0.000018
    15  O    0.000007  -0.000000   0.000000
    16  O   -0.000001  -0.000000  -0.000002
    17  C   -0.001272  -0.000133   0.000264
    18  C   -0.051508   0.004459  -0.009929
    19  H    0.000144  -0.000043   0.000072
    20  H    0.002405  -0.000000   0.000011
    21  C    0.377118  -0.029579  -0.039703
    22  H    0.003699   0.000087   0.005182
    23  H   -0.001209  -0.000146   0.000118
    24  C   -0.038029   0.376574   0.381037
    25  H    0.547444  -0.006068   0.004708
    26  H   -0.006068   0.519314  -0.032930
    27  H    0.004708  -0.032930   0.525248
 Mulliken charges:
               1
     1  C   -0.139573
     2  C    0.241098
     3  C   -0.191813
     4  C   -0.184999
     5  C   -0.149556
     6  C   -0.186174
     7  H    0.192957
     8  H    0.189637
     9  H    0.178081
    10  H    0.178450
    11  S    0.349848
    12  N   -0.426237
    13  C   -0.192057
    14  S    1.183352
    15  O   -0.529650
    16  O   -0.559677
    17  C   -0.498687
    18  C   -0.376297
    19  H    0.222879
    20  H    0.232670
    21  C   -0.084244
    22  H    0.203449
    23  H    0.215035
    24  C   -0.365499
    25  H    0.162605
    26  H    0.168463
    27  H    0.165941
 Sum of Mulliken charges =  -0.00000
 Mulliken charges with hydrogens summed into heavy atoms:
               1
     1  C    0.053383
     2  C    0.241098
     3  C   -0.191813
     4  C    0.004637
     5  C    0.028525
     6  C   -0.007725
    11  S    0.349848
    12  N   -0.426237
    13  C   -0.192057
    14  S    1.183352
    15  O   -0.529650
    16  O   -0.559677
    17  C   -0.043137
    18  C    0.042187
    21  C    0.078361
    24  C   -0.031095
 Electronic spatial extent (au):  <R**2>=           5563.0057
 Charge=             -0.0000 electrons
 Dipole moment (field-independent basis, Debye):
    X=              2.5479    Y=              3.3565    Z=             -3.1441  Tot=              5.2577
 Quadrupole moment (field-independent basis, Debye-Ang):
   XX=            -85.8331   YY=           -107.9031   ZZ=           -112.6687
   XY=             -5.4121   XZ=              2.1910   YZ=              4.4607
 Traceless Quadrupole moment (field-independent basis, Debye-Ang):
   XX=             16.3019   YY=             -5.7681   ZZ=            -10.5337
   XY=             -5.4121   XZ=              2.1910   YZ=              4.4607
 Octapole moment (field-independent basis, Debye-Ang**2):
  XXX=             40.9283  YYY=             12.3620  ZZZ=             -8.9124  XYY=              9.7415
  XXY=             27.3711  XXZ=            -33.0803  XZZ=              1.4043  YZZ=             -2.7284
  YYZ=              6.0134  XYZ=             11.4595
 Hexadecapole moment (field-independent basis, Debye-Ang**3):
 XXXX=          -5532.7168 YYYY=           -926.5030 ZZZZ=           -609.0397 XXXY=             65.0196
 XXXZ=              0.3322 YYYX=            -15.4598 YYYZ=             16.4116 ZZZX=              7.6399
 ZZZY=             17.0850 XXYY=          -1085.8318 XXZZ=          -1080.0164 YYZZ=           -244.3421
 XXYZ=             36.9642 YYXZ=             16.3872 ZZXY=            -14.9657
 N-N= 1.309629437239D+03 E-N=-5.976204341200D+03  KE= 1.419106621066D+03
 Calling FoFJK, ICntrl=      2127 FMM=F ISym2X=0 I1Cent= 0 IOpClX= 0 NMat=1 NMatS=1 NMatT=0.
 ***** Axes restored to original set *****
 -------------------------------------------------------------------
 Center     Atomic                   Forces (Hartrees/Bohr)
 Number     Number              X              Y              Z
 -------------------------------------------------------------------
      1        6          -0.000928886    0.000843715    0.000814703
      2        6           0.004311551   -0.001417363   -0.002172086
      3        6           0.001884443    0.001719266    0.000264408
      4        6           0.000251405   -0.000141737   -0.000172850
      5        6           0.001515450   -0.000082926   -0.000634855
      6        6           0.000821312    0.000721326    0.000151580
      7        1           0.000778190   -0.003067411   -0.002291003
      8        1          -0.001001551    0.002738639    0.002357829
      9        1          -0.003480013    0.000215184    0.001414948
     10        1          -0.002564460   -0.002696858   -0.000950572
     11       16           0.001230757   -0.002473778   -0.001686187
     12        7          -0.001579126    0.003761382    0.001645049
     13        6          -0.001195991    0.000644669   -0.000935678
     14       16          -0.001277909   -0.007635989    0.010818508
     15        8           0.000212897    0.002174264   -0.002846949
     16        8           0.001130873    0.001778059   -0.003533231
     17        6           0.004205991    0.003708310   -0.002803748
     18        6          -0.002979927   -0.002293428    0.002097925
     19        1          -0.001982571    0.001171935    0.002550638
     20        1          -0.001620349   -0.002090419   -0.001985379
     21        6          -0.001132450    0.003143204   -0.001980280
     22        1           0.000973470    0.002722882    0.001434615
     23        1           0.000647164   -0.000463655   -0.003077314
     24        6           0.000329818    0.000293768    0.000145056
     25        1          -0.000893963   -0.003533907   -0.001351332
     26        1           0.001885928   -0.004123730    0.001214046
     27        1           0.000457947    0.004384599    0.001512159
 -------------------------------------------------------------------
 Cartesian Forces:  Max     0.010818508 RMS     0.002511755

 GradGradGradGradGradGradGradGradGradGradGradGradGradGradGradGradGradGrad
 Berny optimization.
 FormGI is forming the generalized inverse of G from B-inverse, IUseBI=4.
 Internal  Forces:  Max     0.004625725 RMS     0.001494384
 Search for a local minimum.
 Step number   1 out of a maximum of  151
 All quantities printed in internal units (Hartrees-Bohrs-Radians)
 Mixed Optimization -- RFO/linear search
 Second derivative matrix not updated -- first step.
 ITU=  0
     Eigenvalues ---    0.00375   0.00455   0.00547   0.00737   0.01187
     Eigenvalues ---    0.01674   0.01677   0.01837   0.01971   0.02062
     Eigenvalues ---    0.02092   0.02128   0.02168   0.02178   0.02207
     Eigenvalues ---    0.02375   0.02988   0.02988   0.04086   0.04362
     Eigenvalues ---    0.04870   0.05565   0.07850   0.08333   0.08676
     Eigenvalues ---    0.09037   0.11663   0.12182   0.12635   0.16000
     Eigenvalues ---    0.16000   0.16000   0.16000   0.16000   0.16000
     Eigenvalues ---    0.16000   0.17897   0.21946   0.21953   0.22000
     Eigenvalues ---    0.22000   0.22590   0.24509   0.25000   0.25000
     Eigenvalues ---    0.25000   0.25000   0.26628   0.27200   0.29466
     Eigenvalues ---    0.30608   0.31082   0.32152   0.33543   0.33728
     Eigenvalues ---    0.33775   0.33858   0.34153   0.34391   0.34627
     Eigenvalues ---    0.34739   0.34770   0.34810   0.34814   0.38592
     Eigenvalues ---    0.42070   0.43195   0.44909   0.46965   0.47363
     Eigenvalues ---    0.47785   0.59035   0.69098   0.91240   0.92482
 RFO step:  Lambda=-1.48774109D-03 EMin= 3.75171849D-03
 Linear search not attempted -- first point.
 Iteration  1 RMS(Cart)=  0.06362198 RMS(Int)=  0.00095486
 Iteration  2 RMS(Cart)=  0.00151599 RMS(Int)=  0.00004983
 Iteration  3 RMS(Cart)=  0.00000105 RMS(Int)=  0.00004983
 Iteration  4 RMS(Cart)=  0.00000000 RMS(Int)=  0.00004983
 Variable       Old X    -DE/DX   Delta X   Delta X   Delta X     New X
                                 (Linear)    (Quad)   (Total)
    R1        2.65539  -0.00326   0.00000  -0.00730  -0.00730   2.64809
    R2        2.61520  -0.00255   0.00000  -0.00524  -0.00524   2.60996
    R3        2.05985  -0.00389   0.00000  -0.01112  -0.01112   2.04873
    R4        2.67314  -0.00225   0.00000  -0.00568  -0.00568   2.66746
    R5        2.61160   0.00160   0.00000   0.00326   0.00326   2.61486
    R6        2.64674  -0.00243   0.00000  -0.00533  -0.00533   2.64141
    R7        3.28734   0.00058   0.00000   0.00137   0.00137   3.28871
    R8        2.62097  -0.00256   0.00000  -0.00528  -0.00528   2.61569
    R9        2.05978  -0.00375   0.00000  -0.01072  -0.01072   2.04906
   R10        2.66435  -0.00282   0.00000  -0.00633  -0.00633   2.65802
   R11        2.06100  -0.00376   0.00000  -0.01078  -0.01078   2.05022
   R12        2.06050  -0.00384   0.00000  -0.01100  -0.01100   2.04950
   R13        3.28953   0.00286   0.00000   0.00958   0.00958   3.29911
   R14        2.42187   0.00161   0.00000   0.00247   0.00248   2.42434
   R15        3.38939   0.00062   0.00000   0.00232   0.00232   3.39171
   R16        2.75510  -0.00277   0.00000  -0.00299  -0.00299   2.75211
   R17        2.76067   0.00005   0.00000   0.00006   0.00006   2.76073
   R18        3.37621   0.00321   0.00000   0.01175   0.01175   3.38796
   R19        2.89041   0.00068   0.00000   0.00229   0.00229   2.89270
   R20        2.07571  -0.00297   0.00000  -0.00873  -0.00873   2.06698
   R21        2.07711  -0.00316   0.00000  -0.00931  -0.00931   2.06780
   R22        2.83867  -0.00003   0.00000  -0.00010  -0.00010   2.83857
   R23        2.07792  -0.00323   0.00000  -0.00952  -0.00952   2.06839
   R24        2.08109  -0.00311   0.00000  -0.00924  -0.00924   2.07185
   R25        2.51712  -0.00396   0.00000  -0.00669  -0.00669   2.51043
   R26        2.07072  -0.00388   0.00000  -0.01132  -0.01132   2.05941
   R27        2.06286  -0.00463   0.00000  -0.01330  -0.01330   2.04955
   R28        2.06675  -0.00462   0.00000  -0.01337  -0.01337   2.05338
    A1        2.06916   0.00021   0.00000   0.00066   0.00066   2.06981
    A2        2.08485  -0.00048   0.00000  -0.00265  -0.00265   2.08219
    A3        2.12918   0.00027   0.00000   0.00199   0.00199   2.13117
    A4        2.09429   0.00020   0.00000   0.00081   0.00081   2.09510
    A5        2.19037  -0.00186   0.00000  -0.00680  -0.00680   2.18357
    A6        1.99852   0.00167   0.00000   0.00599   0.00599   2.00451
    A7        2.11759  -0.00062   0.00000  -0.00207  -0.00207   2.11552
    A8        1.91700   0.00046   0.00000   0.00057   0.00056   1.91756
    A9        2.24860   0.00016   0.00000   0.00150   0.00150   2.25010
   A10        2.05463   0.00048   0.00000   0.00202   0.00202   2.05664
   A11        2.11448  -0.00026   0.00000  -0.00114  -0.00114   2.11334
   A12        2.11408  -0.00022   0.00000  -0.00087  -0.00087   2.11321
   A13        2.11927  -0.00027   0.00000  -0.00127  -0.00127   2.11800
   A14        2.08051   0.00025   0.00000   0.00134   0.00134   2.08185
   A15        2.08340   0.00002   0.00000  -0.00007  -0.00007   2.08333
   A16        2.11144  -0.00001   0.00000  -0.00015  -0.00015   2.11129
   A17        2.08914   0.00005   0.00000   0.00035   0.00035   2.08949
   A18        2.08260  -0.00004   0.00000  -0.00020  -0.00020   2.08240
   A19        1.52637  -0.00051   0.00000  -0.00216  -0.00216   1.52421
   A20        1.91755  -0.00169   0.00000  -0.00581  -0.00581   1.91173
   A21        2.06530   0.00008   0.00000   0.00137   0.00136   2.06666
   A22        2.08401   0.00019   0.00000   0.00021   0.00019   2.08421
   A23        2.13385  -0.00027   0.00000  -0.00164  -0.00166   2.13219
   A24        1.88943   0.00187   0.00000   0.01007   0.00997   1.89940
   A25        1.84528  -0.00045   0.00000  -0.01033  -0.01065   1.83463
   A26        1.80544  -0.00344   0.00000  -0.02416  -0.02435   1.78109
   A27        2.09349   0.00239   0.00000   0.02873   0.02876   2.12225
   A28        1.89614  -0.00066   0.00000  -0.00349  -0.00344   1.89269
   A29        1.91204  -0.00054   0.00000  -0.00849  -0.00876   1.90328
   A30        1.90351   0.00019   0.00000   0.00334   0.00336   1.90687
   A31        1.85377   0.00109   0.00000   0.01399   0.01401   1.86778
   A32        1.84668   0.00029   0.00000   0.00628   0.00629   1.85297
   A33        1.96409  -0.00098   0.00000  -0.01032  -0.01039   1.95370
   A34        1.96945  -0.00028   0.00000  -0.00521  -0.00526   1.96419
   A35        1.91883  -0.00014   0.00000  -0.00560  -0.00574   1.91309
   A36        1.93378  -0.00121   0.00000  -0.00530  -0.00530   1.92848
   A37        1.90821   0.00020   0.00000  -0.00161  -0.00162   1.90659
   A38        1.88965   0.00029   0.00000   0.00210   0.00211   1.89176
   A39        1.92587   0.00037   0.00000   0.00046   0.00045   1.92632
   A40        1.92207   0.00071   0.00000   0.00671   0.00672   1.92879
   A41        1.88316  -0.00034   0.00000  -0.00230  -0.00230   1.88087
   A42        2.16800  -0.00009   0.00000  -0.00040  -0.00040   2.16760
   A43        2.02632   0.00010   0.00000   0.00054   0.00054   2.02686
   A44        2.08884  -0.00001   0.00000  -0.00011  -0.00011   2.08872
   A45        2.11741   0.00068   0.00000   0.00423   0.00423   2.12164
   A46        2.11516   0.00028   0.00000   0.00172   0.00172   2.11688
   A47        2.05061  -0.00096   0.00000  -0.00598  -0.00598   2.04462
    D1       -0.00042   0.00000   0.00000   0.00015   0.00015  -0.00027
    D2        3.13810   0.00005   0.00000   0.00186   0.00186   3.13996
    D3       -3.14100   0.00006   0.00000   0.00258   0.00258  -3.13842
    D4       -0.00248   0.00010   0.00000   0.00429   0.00429   0.00181
    D5       -0.00052  -0.00000   0.00000  -0.00020  -0.00020  -0.00072
    D6       -3.14145   0.00003   0.00000   0.00151   0.00151  -3.13994
    D7        3.14004  -0.00006   0.00000  -0.00270  -0.00271   3.13733
    D8       -0.00090  -0.00002   0.00000  -0.00099  -0.00099  -0.00190
    D9        0.00177   0.00001   0.00000   0.00044   0.00044   0.00221
   D10       -3.13993  -0.00006   0.00000  -0.00240  -0.00240   3.14085
   D11       -3.13707  -0.00003   0.00000  -0.00107  -0.00108  -3.13816
   D12        0.00441  -0.00009   0.00000  -0.00391  -0.00392   0.00049
   D13       -3.13774   0.00012   0.00000   0.00599   0.00599  -3.13175
   D14        0.00093   0.00016   0.00000   0.00761   0.00761   0.00854
   D15       -0.00210  -0.00002   0.00000  -0.00095  -0.00095  -0.00306
   D16        3.14056  -0.00005   0.00000  -0.00209  -0.00209   3.13847
   D17        3.13962   0.00006   0.00000   0.00247   0.00247  -3.14109
   D18       -0.00090   0.00003   0.00000   0.00134   0.00134   0.00044
   D19       -0.00610   0.00000   0.00000  -0.00042  -0.00042  -0.00653
   D20        3.13537  -0.00006   0.00000  -0.00353  -0.00354   3.13183
   D21        0.00116   0.00002   0.00000   0.00091   0.00091   0.00206
   D22       -3.14029  -0.00002   0.00000  -0.00066  -0.00066  -3.14095
   D23       -3.14151   0.00005   0.00000   0.00204   0.00204  -3.13946
   D24        0.00023   0.00001   0.00000   0.00047   0.00047   0.00071
   D25        0.00014  -0.00001   0.00000  -0.00034  -0.00034  -0.00020
   D26        3.14108  -0.00004   0.00000  -0.00205  -0.00205   3.13903
   D27        3.14159   0.00003   0.00000   0.00123   0.00123  -3.14037
   D28       -0.00066  -0.00001   0.00000  -0.00048  -0.00048  -0.00114
   D29        0.00751   0.00009   0.00000   0.00524   0.00525   0.01276
   D30       -3.14144  -0.00003   0.00000  -0.00425  -0.00424   3.13750
   D31       -0.00622  -0.00016   0.00000  -0.00825  -0.00823  -0.01446
   D32       -3.14023  -0.00003   0.00000   0.00151   0.00153  -3.13871
   D33        2.29706   0.00139   0.00000  -0.06025  -0.06022   2.23684
   D34        0.03305  -0.00245   0.00000  -0.09524  -0.09515  -0.06210
   D35       -1.97646  -0.00021   0.00000  -0.07149  -0.07162  -2.04808
   D36       -0.85219   0.00126   0.00000  -0.07010  -0.07007  -0.92226
   D37       -3.11620  -0.00258   0.00000  -0.10510  -0.10500   3.06198
   D38        1.15747  -0.00034   0.00000  -0.08135  -0.08147   1.07600
   D39       -3.12703  -0.00096   0.00000  -0.00534  -0.00529  -3.13232
   D40        1.03530  -0.00053   0.00000  -0.00303  -0.00299   1.03231
   D41       -1.00390  -0.00102   0.00000  -0.00608  -0.00605  -1.00995
   D42       -1.12216  -0.00077   0.00000  -0.00702  -0.00697  -1.12913
   D43        3.04017  -0.00034   0.00000  -0.00471  -0.00467   3.03551
   D44        1.00097  -0.00083   0.00000  -0.00776  -0.00773   0.99325
   D45        1.19488   0.00143   0.00000   0.02148   0.02141   1.21629
   D46       -0.92597   0.00186   0.00000   0.02379   0.02371  -0.90226
   D47       -2.96517   0.00138   0.00000   0.02074   0.02065  -2.94452
   D48        3.11859  -0.00005   0.00000  -0.00404  -0.00403   3.11456
   D49       -1.03830  -0.00023   0.00000  -0.00797  -0.00795  -1.04626
   D50        1.00912  -0.00037   0.00000  -0.01041  -0.01041   0.99871
   D51       -1.11219   0.00084   0.00000   0.00922   0.00918  -1.10301
   D52        1.01410   0.00065   0.00000   0.00529   0.00526   1.01936
   D53        3.06152   0.00052   0.00000   0.00285   0.00281   3.06433
   D54        1.07173  -0.00037   0.00000  -0.01086  -0.01083   1.06090
   D55       -3.08516  -0.00055   0.00000  -0.01479  -0.01475  -3.09992
   D56       -1.03774  -0.00069   0.00000  -0.01724  -0.01721  -1.05495
   D57        2.05741  -0.00013   0.00000  -0.00733  -0.00733   2.05008
   D58       -1.07604  -0.00021   0.00000  -0.01162  -0.01162  -1.08765
   D59       -0.05850   0.00016   0.00000  -0.00210  -0.00209  -0.06060
   D60        3.09124   0.00009   0.00000  -0.00638  -0.00638   3.08486
   D61       -2.13561  -0.00009   0.00000  -0.00376  -0.00376  -2.13938
   D62        1.01413  -0.00017   0.00000  -0.00804  -0.00805   1.00608
   D63        3.14088  -0.00010   0.00000  -0.00419  -0.00419   3.13669
   D64        0.00503   0.00003   0.00000   0.00004   0.00004   0.00507
   D65       -0.00914  -0.00002   0.00000   0.00024   0.00024  -0.00890
   D66        3.13820   0.00011   0.00000   0.00447   0.00447  -3.14051
         Item               Value     Threshold  Converged?
 Maximum Force            0.004626     0.000450     NO 
 RMS     Force            0.001494     0.000300     NO 
 Maximum Displacement     0.210627     0.001800     NO 
 RMS     Displacement     0.063969     0.001200     NO 
 Predicted change in Energy=-7.765644D-04
 GradGradGradGradGradGradGradGradGradGradGradGradGradGradGradGradGradGrad

                          Input orientation:                          
 ---------------------------------------------------------------------
 Center     Atomic      Atomic             Coordinates (Angstroms)
 Number     Number       Type             X           Y           Z
 ---------------------------------------------------------------------
      1          6           0        3.088623    1.707486    0.677225
      2          6           0        2.185694    0.687860    0.347449
      3          6           0        2.598064   -0.382334   -0.475431
      4          6           0        3.902201   -0.452138   -0.973559
      5          6           0        4.778003    0.565487   -0.636927
      6          6           0        4.375730    1.636426    0.181416
      7          1           0        2.760009    2.522205    1.312523
      8          1           0        4.217625   -1.276660   -1.603169
      9          1           0        5.795855    0.535094   -1.011269
     10          1           0        5.090019    2.414902    0.426393
     11         16           0        1.276425   -1.489486   -0.712419
     12          7           0        0.869546    0.623076    0.769645
     13          6           0        0.321127   -0.438685    0.303009
     14         16           0       -1.391543   -0.856616    0.639843
     15          8           0       -1.607750   -0.828513    2.079784
     16          8           0       -1.653151   -2.057354   -0.150134
     17          6           0       -2.265372    0.527232   -0.092030
     18          6           0       -3.770378    0.341331    0.116761
     19          1           0       -1.999546    0.548751   -1.152819
     20          1           0       -1.881270    1.425331    0.401151
     21          6           0       -4.528278    1.505978   -0.453766
     22          1           0       -4.088321   -0.590852   -0.360714
     23          1           0       -3.961488    0.248386    1.192346
     24          6           0       -5.403339    1.411976   -1.448878
     25          1           0       -4.323925    2.477829   -0.005000
     26          1           0       -5.930726    2.281808   -1.825126
     27          1           0       -5.627672    0.456257   -1.914686
 ---------------------------------------------------------------------
                    Distance matrix (angstroms):
                    1          2          3          4          5
     1  C    0.000000
     2  C    1.401311   0.000000
     3  C    2.436516   1.411557   0.000000
     4  C    2.837423   2.447662   1.397776   0.000000
     5  C    2.425935   2.775615   2.382558   1.384165   0.000000
     6  C    1.381130   2.392406   2.768923   2.433166   1.406563
     7  H    1.084140   2.150821   3.414580   3.921414   3.420731
     8  H    3.921730   3.434092   2.166700   1.084315   2.154334
     9  H    3.399208   3.860404   3.369668   2.135878   1.084932
    10  H    2.137507   3.379942   3.853265   3.404510   2.156000
    11  S    3.928841   2.586681   1.740309   2.835310   4.060746
    12  N    2.471597   1.383724   2.355597   3.659486   4.154251
    13  C    3.522090   2.178918   2.406986   3.801827   4.664288
    14  S    5.162161   3.907368   4.169621   5.548909   6.458779
    15  O    5.518549   4.437407   4.941363   6.310635   7.078248
    16  O    6.110889   4.745578   4.580867   5.840949   6.962472
    17  C    5.536246   4.475592   4.962591   6.306759   7.064525
    18  C    7.016153   5.970603   6.436726   7.790177   8.584470
    19  H    5.530027   4.448189   4.739598   5.988700   6.797176
    20  H    4.985546   4.133635   4.909224   6.234040   6.794326
    21  C    7.703047   6.810924   7.372309   8.670489   9.355477
    22  H    7.607115   6.442038   6.690619   8.015189   8.945676
    23  H    7.217922   6.220517   6.797574   8.186543   8.934512
    24  C    8.759056   7.832277   8.257699   9.502311  10.248685
    25  H    7.483631   6.760425   7.504383   8.785895   9.322096
    26  H    9.377647   8.552019   9.036569  10.241390  10.910291
    27  H    9.179182   8.137541   8.392700   9.619219  10.484401
                    6          7          8          9         10
     6  C    0.000000
     7  H    2.162074   0.000000
     8  H    3.419914   5.005725   0.000000
     9  H    2.156892   4.308710   2.474593   0.000000
    10  H    1.084549   2.495132   4.302071   2.469565   0.000000
    11  S    4.491765   4.732344   3.080484   4.961197   5.575359
    12  N    3.696785   2.734093   4.522043   5.239076   4.597918
    13  C    4.556388   3.966628   4.417964   5.713862   5.558822
    14  S    6.299750   5.394842   6.055601   7.504780   7.263541
    15  O    6.744016   5.558176   6.906516   8.138022   7.623224
    16  O    7.078230   6.525926   6.098098   7.934106   8.111954
    17  C    6.738644   5.586335   6.896869   8.113473   7.611428
    18  C    8.248669   6.987991   8.329721   9.634460   9.105065
    19  H    6.603588   5.711900   6.495241   7.796698   7.499224
    20  H    6.264415   4.855431   6.965240   7.856571   7.041218
    21  C    8.927589   7.567802   9.249596  10.384660   9.701158
    22  H    8.768970   7.706521   8.426313   9.969348   9.689995
    23  H    8.512217   7.096705   8.777161  10.007191   9.338643
    24  C    9.916574   8.688970   9.990771  11.241992  10.706683
    25  H    8.742237   7.205551   9.466171  10.353586   9.424033
    26  H   10.519780   9.242917  10.756439  11.883858  11.249172
    27  H   10.288561   9.221508  10.001495  11.459465  11.143869
                   11         12         13         14         15
    11  S    0.000000
    12  N    2.612466   0.000000
    13  C    1.745815   1.282906   0.000000
    14  S    3.057317   2.705339   1.794816   0.000000
    15  O    4.068384   3.156036   2.651314   1.456354   0.000000
    16  O    3.036620   3.794034   2.592914   1.460915   2.546497
    17  C    4.122664   3.252596   2.789091   1.792832   2.643347
    18  C    5.432279   4.694096   4.169356   2.714323   3.146261
    19  H    3.883343   3.454429   2.912042   2.357617   3.535545
    20  H    4.439283   2.889012   2.886995   2.346079   2.823550
    21  C    6.537147   5.604709   5.279314   4.076388   4.516438
    22  H    5.450848   5.227980   4.461717   2.888660   3.487943
    23  H    5.838156   4.863945   4.427616   2.851475   2.736301
    24  C    7.319843   6.700246   6.266065   5.060017   5.646038
    25  H    6.899561   5.568871   5.493399   4.487004   4.759813
    26  H    8.209982   7.465114   7.142529   6.044002   6.603828
    27  H    7.273095   7.031877   6.411497   5.118011   5.810869
                   16         17         18         19         20
    16  O    0.000000
    17  C    2.656741   0.000000
    18  C    3.210540   1.530751   0.000000
    19  H    2.813743   1.093800   2.188767   0.000000
    20  H    3.533418   1.094232   2.196512   1.788073   0.000000
    21  C    4.588669   2.491896   1.502104   2.792749   2.782812
    22  H    2.850442   2.155329   1.094547   2.507809   3.084883
    23  H    3.528046   2.145737   1.096378   3.072334   2.517637
    24  C    5.271328   3.531381   2.502812   3.524006   3.978412
    25  H    5.265166   2.837260   2.210399   3.231341   2.690590
    26  H    6.319143   4.417803   3.493348   4.348524   4.699783
    27  H    5.022817   3.825202   2.754909   3.708408   4.509737
                   21         22         23         24         25
    21  C    0.000000
    22  H    2.144509   0.000000
    23  H    2.147667   1.769860   0.000000
    24  C    1.328464   2.631482   3.226289   0.000000
    25  H    1.089791   3.098200   2.556445   2.094269   0.000000
    26  H    2.109360   3.713642   4.137372   1.084577   2.435794
    27  H    2.108286   2.425050   3.531717   1.086601   3.071385
                   26         27
    26  H    0.000000
    27  H    1.852701   0.000000
 Stoichiometry    C11H11NO2S2
 Framework group  C1[X(C11H11NO2S2)]
 Deg. of freedom    75
 Full point group                 C1      NOp   1
 Largest Abelian subgroup         C1      NOp   1
 Largest concise Abelian subgroup C1      NOp   1
                         Standard orientation:                         
 ---------------------------------------------------------------------
 Center     Atomic      Atomic             Coordinates (Angstroms)
 Number     Number       Type             X           Y           Z
 ---------------------------------------------------------------------
      1          6           0        3.085274    1.697984    0.760779
      2          6           0        2.184520    0.693155    0.383112
      3          6           0        2.600840   -0.339329   -0.484730
      4          6           0        3.906789   -0.385989   -0.980812
      5          6           0        4.780394    0.616515   -0.596480
      6          6           0        4.374186    1.649952    0.266898
      7          1           0        2.753621    2.483593    1.430244
      8          1           0        4.225241   -1.181654   -1.645074
      9          1           0        5.799586    0.603524   -0.968176
     10          1           0        5.086837    2.417451    0.548534
     11         16           0        1.281140   -1.436043   -0.775052
     12          7           0        0.866960    0.608701    0.797354
     13          6           0        0.321238   -0.431885    0.282361
     14         16           0       -1.392192   -0.865705    0.594327
     15          8           0       -1.613488   -0.901369    2.033328
     16          8           0       -1.649832   -2.030620   -0.248801
     17          6           0       -2.264812    0.548369   -0.078856
     18          6           0       -3.770359    0.352178    0.116172
     19          1           0       -1.995279    0.616913   -1.136710
     20          1           0       -1.883336    1.424144    0.454846
     21          6           0       -4.527401    1.540241   -0.405087
     22          1           0       -4.085697   -0.558285   -0.403109
     23          1           0       -3.965157    0.211689    1.185920
     24          6           0       -5.398863    1.489525   -1.406485
     25          1           0       -4.325589    2.491506    0.086860
     26          1           0       -5.925785    2.374677   -1.745848
     27          1           0       -5.620610    0.555111   -1.914815
 ---------------------------------------------------------------------
 Rotational constants (GHZ):           0.9664709           0.2134185           0.1992648
 Standard basis: 6-31G(d) (6D, 7F)
 There are   270 symmetry adapted cartesian basis functions of A   symmetry.
 There are   270 symmetry adapted basis functions of A   symmetry.
   270 basis functions,   540 primitive gaussians,   270 cartesian basis functions
    66 alpha electrons       66 beta electrons
       nuclear repulsion energy      1310.8243305798 Hartrees.
 NAtoms=   27 NActive=   27 NUniq=   27 SFac= 1.00D+00 NAtFMM=   60 NAOKFM=F Big=F
 Integral buffers will be    131072 words long.
 Raffenetti 2 integral format.
 Two-electron integral symmetry is turned on.
 One-electron integrals computed using PRISM.
 NBasis=   270 RedAO= T EigKep=  4.58D-04  NBF=   270
 NBsUse=   270 1.00D-06 EigRej= -1.00D+00 NBFU=   270
 Initial guess from the checkpoint file:  "M1.chk"
 B after Tr=     0.000000    0.000000   -0.000000
         Rot=    0.999772   -0.021217    0.002097   -0.001052 Ang=  -2.45 deg.
 ExpMin= 1.17D-01 ExpMax= 2.19D+04 ExpMxC= 3.30D+03 IAcc=3 IRadAn=         5 AccDes= 0.00D+00
 Harris functional with IExCor= 1009 and IRadAn=       5 diagonalized for initial guess.
 HarFok:  IExCor= 1009 AccDes= 0.00D+00 IRadAn=         5 IDoV= 1 UseB2=F ITyADJ=14
 ICtDFT=  3500011 ScaDFX=  1.000000  1.000000  1.000000  1.000000
 FoFCou: FMM=F IPFlag=           0 FMFlag=      100000 FMFlg1=           0
         NFxFlg=           0 DoJE=T BraDBF=F KetDBF=T FulRan=T
         wScrn=  0.000000 ICntrl=       500 IOpCl=  0 I1Cent=   200000004 NGrid=           0
         NMat0=    1 NMatS0=      1 NMatT0=    0 NMatD0=    1 NMtDS0=    0 NMtDT0=    0
 Petite list used in FoFCou.
 Requested convergence on RMS density matrix=1.00D-08 within 128 cycles.
 Requested convergence on MAX density matrix=1.00D-06.
 Requested convergence on             energy=1.00D-06.
 No special actions if energy rises.
 Integral accuracy reduced to 1.0D-05 until final iterations.
 Initial convergence to 1.0D-05 achieved.  Increase integral accuracy.
 SCF Done:  E(RM062X) =  -1426.94866864     A.U. after   13 cycles
            NFock= 13  Conv=0.95D-08     -V/T= 2.0054
 Calling FoFJK, ICntrl=      2127 FMM=F ISym2X=0 I1Cent= 0 IOpClX= 0 NMat=1 NMatS=1 NMatT=0.
 ***** Axes restored to original set *****
 -------------------------------------------------------------------
 Center     Atomic                   Forces (Hartrees/Bohr)
 Number     Number              X              Y              Z
 -------------------------------------------------------------------
      1        6          -0.000571005    0.000117738    0.000111144
      2        6           0.001745389   -0.000130931   -0.001144056
      3        6          -0.000084177    0.000245130    0.000630545
      4        6          -0.000440928    0.000005117    0.000115536
      5        6           0.000332270    0.000251257    0.000030436
      6        6           0.000536626    0.000057765   -0.000090308
      7        1          -0.000162804    0.000147667    0.000170673
      8        1           0.000059176   -0.000208293   -0.000151329
      9        1           0.000176566   -0.000013285   -0.000088941
     10        1           0.000170662    0.000175360    0.000064625
     11       16          -0.000125890   -0.000740803   -0.000196421
     12        7          -0.000995757    0.000002550    0.000444495
     13        6           0.000129144    0.000072566   -0.000003908
     14       16          -0.000020288    0.000980217    0.000249925
     15        8          -0.000169968   -0.001103034   -0.001645561
     16        8          -0.000106710   -0.000399679    0.001039597
     17        6           0.000281476    0.001068625    0.000124842
     18        6          -0.000414217   -0.000278923    0.000248597
     19        1          -0.000057074   -0.000318719    0.000109240
     20        1           0.000033681   -0.000030234    0.000040667
     21        6           0.000172840    0.000165439    0.000447046
     22        1          -0.000156333   -0.000088538   -0.000111992
     23        1          -0.000123412    0.000057740    0.000011880
     24        6           0.000131899   -0.000083361    0.000107591
     25        1           0.000068843    0.000070013    0.000134625
     26        1          -0.000175919    0.000181890   -0.000365871
     27        1          -0.000234091   -0.000203275   -0.000283076
 -------------------------------------------------------------------
 Cartesian Forces:  Max     0.001745389 RMS     0.000452590

 GradGradGradGradGradGradGradGradGradGradGradGradGradGradGradGradGradGrad
 Berny optimization.
 Using GEDIIS/GDIIS optimizer.
 FormGI is forming the generalized inverse of G from B-inverse, IUseBI=4.
 Internal  Forces:  Max     0.001621773 RMS     0.000321722
 Search for a local minimum.
 Step number   2 out of a maximum of  151
 All quantities printed in internal units (Hartrees-Bohrs-Radians)
 Mixed Optimization -- En-DIIS/RFO-DIIS
 Update second derivatives using D2CorX and points    1    2
 DE= -7.61D-04 DEPred=-7.77D-04 R= 9.80D-01
 TightC=F SS=  1.41D+00  RLast= 2.19D-01 DXNew= 5.0454D-01 6.5648D-01
 Trust test= 9.80D-01 RLast= 2.19D-01 DXMaxT set to 5.05D-01
 ITU=  1  0
 Use linear search instead of GDIIS.
     Eigenvalues ---    0.00375   0.00415   0.00547   0.00736   0.01191
     Eigenvalues ---    0.01675   0.01680   0.01837   0.01972   0.02062
[...]
 00015337,0.00016191,-0.00000236,0.00044902,-0.00986961,-0.02104406,-0.
 01447793,0.00100184,0.00323971,0.00148510,0.00315186,-0.00527522,0.001
 18732,-0.08039138,-0.22709871,-0.10733269,-0.00109866,-0.00024599,0.00
 020541,0.00154650,0.00429448,0.00209965,0.08586685,0.24321044,-0.00001
 935,0.00003510,-0.00000660,0.00002172,0.00001701,-0.00008032,0.0000278
 8,-0.00002983,0.00003902,0.00001557,0.00000875,-0.00000035,-0.00000397
 ,-0.00000724,-0.00000629,-0.00000418,-0.00000252,-0.00000673,0.0000020
 5,-0.00000505,0.00002329,-0.00000263,0.00000027,0.00000429,-0.00000182
 ,-0.00000105,0.00000248,-0.00000347,-0.00000257,0.00000510,0.00009540,
 0.00008504,0.00011692,-0.00073267,0.00018652,-0.00047828,0.00045706,-0
 .00094034,-0.00034665,0.00558004,0.00941535,0.00454739,-0.00056602,-0.
 00075919,-0.00080140,-0.00179330,0.00338032,0.00101108,-0.04718740,-0.
 10839222,-0.11551472,0.00193615,0.00570397,0.00334751,-0.01042294,-0.0
 2544488,-0.01141835,0.05176770,0.11586665,0.11828145,0.00004677,0.0000
 7262,0.00003132,-0.00009703,-0.00007959,0.00011296,-0.00018699,0.00002
 751,0.00007795,0.00006502,-0.00010581,0.00001271,-0.00005866,-0.000048
 73,-0.00001419,-0.00006305,0.00004434,0.00003389,-0.00000047,-0.000005
 76,0.00000163,0.00000252,0.00000401,0.00000602,-0.00001316,-0.00000325
 ,-0.00001124,-0.00001052,-0.00000593,0.00000094,-0.00032572,-0.0001138
 1,-0.00005397,0.00010404,-0.00005297,-0.00001149,-0.00077591,0.0017560
 8,-0.00078315,-0.00657521,-0.00376867,0.00262340,0.00126312,0.00038143
 ,-0.00142884,0.00125155,0.00132955,0.00034459,-0.02739742,0.02822669,-
 0.01259362,-0.10704225,0.05991212,-0.02866318,0.00228339,0.00014488,-0
 .00034798,0.00185119,0.00037182,-0.00021409,0.48155066,0.00007838,0.00
 017291,0.00007518,-0.00011406,-0.00002467,0.00011036,-0.00026860,0.000
 06037,0.00011791,0.00010655,-0.00016119,-0.00003905,-0.00011099,-0.000
 09782,-0.00001756,-0.00013063,0.00006646,0.00007358,0.00000063,-0.0000
 0335,-0.00001323,-0.00000323,0.00001482,0.00000771,-0.00002849,-0.0000
 1104,-0.00001139,-0.00003267,-0.00001278,-0.00000116,-0.00033003,-0.00
 014944,-0.00002711,-0.00012923,-0.00001553,0.00002064,-0.00040629,0.00
 129811,-0.00081878,-0.00183309,-0.00414214,0.00085998,-0.00053003,0.00
 086371,-0.00092383,0.00061477,0.00155091,0.00058496,0.00551787,0.00468
 884,-0.00170853,0.05677337,-0.18840265,0.03269167,-0.00109362,0.000217
 50,-0.00002883,-0.00158232,0.00125305,-0.00016523,-0.03038921,0.582001
 28,-0.00002011,-0.00003127,-0.00000754,0.00001765,0.00000565,-0.000047
 72,0.00006773,-0.00003292,-0.00004565,-0.00002144,0.00004975,0.0000047
 8,0.00002605,0.00002080,0.00000325,0.00003204,-0.00002157,-0.00001786,
 -0.00001028,0.00000022,-0.00000328,0.00000153,-0.00000499,-0.00000320,
 0.00001055,0.00000211,0.00000304,0.00000691,0.00000484,0.,0.00010912,0
 .00004298,0.00002113,0.00004463,-0.00005957,0.00003365,0.00006478,-0.0
 0039249,0.00032956,0.00053390,0.00114893,-0.00285195,-0.00112296,-0.00
 001872,0.00110993,0.00063663,-0.00014285,0.00043276,-0.00218507,-0.003
 74240,0.00100612,-0.02919092,0.03622152,-0.09719963,0.00132365,-0.0009
 3449,0.00065317,-0.00030580,0.00059506,-0.00008250,0.36141985,0.090265
 42,0.58823138,-0.00001945,-0.00002342,-0.00001073,0.00017663,0.0001684
 8,-0.00003058,-0.00008069,-0.00001288,0.00004128,0.00000118,0.00002887
 ,0.00001672,0.00000340,0.00000567,0.00000133,0.00001685,-0.00000103,-0
 .00000488,0.00001099,0.00000854,0.00000430,-0.00000619,-0.00000100,0.0
 0000120,0.00000002,0.00000232,0.00000165,0.00000022,-0.00000017,0.0000
 0052,-0.00013218,0.00008415,0.00008268,-0.00014624,0.00021075,-0.00001
 017,-0.00019131,-0.00006215,0.00004016,-0.00151905,-0.00500417,-0.0019
 5786,0.00020046,0.00085108,-0.00036798,0.00152493,0.00145537,0.0013763
 1,-0.01297888,-0.02679118,-0.01708566,-0.07337692,-0.06864580,-0.03890
 650,0.00138590,0.00019576,0.00018116,-0.00614363,0.00045227,0.00157730
 ,0.00521255,0.01513915,0.00903697,0.08526289,0.00000160,0.00000797,0.0
 0000567,-0.00000551,-0.00001667,-0.00000732,-0.00002408,0.00000441,0.0
 0000623,0.00000977,-0.00000587,0.00000067,-0.00000713,-0.00000849,-0.0
 0000214,-0.00000898,0.00000499,0.00000492,0.00000187,0.00000023,0.0000
 0014,-0.00000097,0.00000135,-0.00000002,-0.00000195,-0.00000020,-0.000
 00058,-0.00000181,-0.00000067,-0.00000012,-0.00001921,0.00001573,0.000
 01684,-0.00010108,0.00000012,0.00001854,0.00000738,-0.00008273,-0.0001
 7978,0.00006577,0.00004543,0.00013340,-0.00007984,-0.00008140,0.000011
 39,0.00040376,-0.00031249,0.00002933,-0.00159669,-0.00112814,-0.000363
 52,-0.06934641,-0.23183794,-0.10591376,-0.00011568,0.00002117,-0.00000
 433,0.00022282,0.00068493,0.00032831,-0.00731331,-0.02391458,-0.013338
 91,0.07380087,0.25152055,0.00000404,-0.00000347,-0.00000049,-0.0000009
 4,0.00000058,-0.00000032,-0.00001011,-0.00000321,-0.00000137,0.0000018
 4,0.00000026,0.00000265,0.00000106,-0.00000123,-0.00000150,0.00000034,
 0.00000433,0.00000120,0.00000086,0.00000101,0.00000030,0.00000074,-0.0
 0000117,0.00000090,0.00000039,0.00000055,-0.00000012,0.00000141,-0.000
 00003,0.00000011,-0.00002834,-0.00001480,-0.00001132,0.00006963,-0.000
 00091,0.00002441,-0.00009068,0.00018404,-0.00001169,-0.00106993,-0.001
 64127,-0.00029463,-0.00003764,0.00053868,0.00014763,0.00060495,0.00037
 458,-0.00015552,0.00172365,0.00630272,0.00289249,-0.04024002,-0.107643
 61,-0.11612612,-0.00046028,0.00068435,0.00043803,0.00176259,0.00010541
 ,0.00085221,0.00398213,0.00980874,0.00521899,0.04489960,0.11511424,0.1
 1891916,-0.00000737,-0.00000805,-0.00000643,0.00006064,-0.00000649,0.0
 0002921,0.00006289,-0.00003522,-0.00000474,-0.00000326,0.00002062,0.00
 001136,0.00001270,0.00000712,-0.00000111,0.00001174,-0.00000361,-0.000
 01094,-0.00000041,-0.00000150,0.00000769,0.00000087,-0.00000348,0.0000
 0197,0.00000277,0.00000257,-0.00000032,0.00000256,0.00000082,0.0000009
 4,0.00006753,0.00005968,0.00003305,0.00006319,0.00011420,-0.00013343,-
 0.00013323,-0.00011244,-0.00041314,-0.00116179,-0.00062849,0.00552828,
 0.00117949,-0.00037217,-0.00223137,0.00005344,0.00052510,-0.00057762,-
 0.00911758,-0.00314578,0.03466601,-0.05063863,-0.00656612,0.03773541,-
 0.00677499,-0.00041883,0.00005927,0.00130467,-0.00013935,-0.00036405,0
 .00171776,0.00197437,-0.01982951,0.00134247,0.00239360,-0.01021662,0.0
 6328761,0.00000466,0.00002210,0.00000659,-0.00004284,-0.00001653,-0.00
 000981,-0.00001783,0.00001055,0.00000876,0.00000437,-0.00001439,-0.000
 01724,-0.00000988,-0.00000702,-0.00000003,-0.00001085,0.00000139,0.000
 00416,-0.00000497,-0.00000382,0.,0.00000094,0.00000108,-0.00000053,-0.
 00000074,-0.00000274,0.00000051,-0.00000244,-0.00000082,0.00000080,-0.
 00002546,-0.00005768,-0.00000593,-0.00000932,-0.00006500,-0.00003367,0
 .00003407,0.00009610,0.00026756,0.00103879,0.00061172,-0.00187136,-0.0
 0011337,-0.00060982,0.00066741,0.00001797,-0.00026456,0.00038149,-0.00
 129633,-0.00077000,0.00378419,-0.00745199,-0.05647131,0.03057901,-0.00
 050193,0.00062275,0.00021948,0.00017987,0.00003136,0.00059008,-0.00311
 225,-0.00254601,0.02828701,0.00518283,0.00489755,-0.02662089,0.0040688
 0,0.05644937,-0.00000405,-0.00000979,-0.00000107,0.00000196,0.00000150
 ,-0.00000361,0.00002128,-0.00000063,-0.00001237,-0.00000625,0.00000806
 ,0.00000402,0.00000628,0.00000609,0.00000178,0.00000728,-0.00000493,-0
 .00000331,-0.00000062,0.00000077,-0.00000155,-0.00000037,-0.00000027,-
 0.00000143,0.00000148,0.00000085,0.00000005,0.00000130,0.00000111,-0.0
 0000073,0.00004547,0.00000894,-0.00000802,0.00000270,-0.00002854,0.000
 03125,0.00016956,-0.00014140,0.00000173,0.00033592,0.00089996,-0.00183
 409,-0.00140765,0.00028979,0.00024325,0.00006829,-0.00014599,0.0002948
 5,0.00298678,-0.00042524,-0.00356230,0.04238960,0.02790316,-0.30720965
 ,0.00021480,0.00057557,0.00113304,0.00021181,-0.00013211,0.00049015,-0
 .00201821,0.00212036,-0.00924122,0.00212320,0.00208527,-0.01283883,-0.
 04510182,-0.03514522,0.33131207,0.00001411,0.00003453,0.00001082,-0.00
 001660,-0.00000487,0.00001845,-0.00004101,0.00001993,0.00001864,0.0000
 1739,-0.00003266,-0.00001428,-0.00002060,-0.00001780,-0.00000391,-0.00
 002599,0.00001607,0.00001293,0.00000400,-0.00000117,0.00000215,0.00000
 014,0.00000295,0.00000348,-0.00000678,-0.00000311,0.00000021,-0.000006
 41,-0.00000430,0.00000128,-0.00004833,-0.00003193,-0.00000745,-0.00005
 132,0.00000920,0.00000134,-0.00004013,0.00015017,-0.00011683,0.0002933
 7,-0.00080701,0.00028564,-0.00021155,0.00017645,-0.00019201,-0.0000864
 1,0.00025205,0.00000874,0.00105990,0.00094292,-0.00113835,-0.00920078,
 0.00405554,-0.01685280,0.00009362,0.00001950,0.00026032,-0.00011922,-0
 .00001085,0.00003551,-0.28954178,-0.00169372,-0.27263648,0.00028707,-0
 .00137581,0.00068094,-0.00084200,0.00099901,0.00045096,0.46801332,-0.0
 0003768,-0.00007553,-0.00003264,0.00006104,0.00000652,-0.00004220,0.00
 014055,-0.00001928,-0.00005882,-0.00005306,0.00007099,0.00001509,0.000
 05145,0.00004709,0.00000826,0.00006031,-0.00003044,-0.00003555,0.00000
 113,0.00000124,0.00000760,0.00000286,-0.00000744,-0.00000201,0.0000122
 9,0.00000484,0.00000624,0.00001348,0.00000483,0.00000085,0.00014678,0.
 00006372,0.00002756,0.00004833,-0.00000352,-0.00003351,0.00019570,-0.0
 0054628,0.00031692,0.00017117,0.00193754,-0.00010865,0.00044756,-0.000
 36745,0.00015354,-0.00008440,-0.00053473,-0.00031226,0.00053103,-0.003
 20027,0.00213252,0.02025226,0.00192126,0.02228470,0.00008210,0.0000516
 4,-0.00025362,0.00043919,0.00000457,0.00012310,-0.00170068,-0.11272411
 ,-0.02035866,0.00069493,0.00188101,0.00136544,0.00244489,-0.00300271,0
 .00181548,-0.07584761,0.64338993,0.00000926,0.00000687,0.00000892,-0.0
 0002660,0.00000449,0.00000278,-0.00001480,-0.00000058,0.00000191,0.000
 00525,-0.00000850,0.00000175,-0.00000729,-0.00000731,0.00000237,-0.000
 01040,0.00000157,0.00000956,-0.00000068,0.00000127,-0.00000838,-0.0000
 0227,0.00000316,-0.00000282,-0.00000195,0.00000043,-0.00000283,-0.0000
 0275,0.00000067,-0.00000290,0.00000462,-0.00000432,-0.00003318,-0.0000
 0621,0.00000833,0.00002807,0.00005554,-0.00000842,-0.00001609,0.000417
 03,-0.00042823,0.00031562,-0.00010238,-0.00007433,0.00024462,-0.000103
 79,-0.00005976,-0.00000304,0.00155133,0.00089803,-0.00058936,-0.012353
 30,0.00331172,-0.00630887,-0.00088077,0.00019349,0.00016178,-0.0000198
 3,0.00000428,0.00000802,-0.27220071,-0.01962206,-0.36713201,0.00121757
 ,-0.00106313,0.00068100,-0.00009657,-0.00017007,0.00070908,0.38372602,
 0.06637507,0.56730689,-0.00000046,0.00000036,0.00000342,-0.00001760,-0
 .00000658,-0.00000800,0.00000692,-0.00000295,-0.00000336,-0.00000180,0
 .00000098,0.00000134,0.00000144,0.00000205,0.00000151,0.00000163,-0.00
 000583,-0.00000073,-0.00000605,-0.00000123,-0.00000456,0.00000017,-0.0
 0000014,-0.00000155,0.00000165,0.00000006,-0.00000128,0.00000068,0.000
 00134,-0.00000078,0.00002531,-0.00001275,-0.00001923,0.00002212,-0.000
 03802,0.00001267,0.00002132,-0.00000458,0.00004320,0.00037790,0.000405
 48,-0.00016630,-0.00008101,-0.00011062,0.00017135,-0.00023426,-0.00032
 235,-0.00011066,0.00192598,0.00013562,0.00057451,0.00422306,0.01391583
 ,0.00684342,-0.00013487,-0.00000726,0.00007824,-0.00035244,-0.00032613
 ,-0.00020288,-0.05833780,-0.04147678,-0.03111273,-0.00087492,0.0024860
 2,-0.00164195,0.00033814,-0.00029116,-0.00036281,0.00075458,-0.0193945
 6,-0.01195257,0.05198404,-0.00000866,-0.00002891,-0.00001309,0.0000297
 1,0.00001105,-0.00000930,0.00002020,-0.00001376,-0.00001162,-0.0000106
 8,0.00002588,0.00000820,0.00001555,0.00001067,0.00000076,0.00001787,-0
 .00000469,-0.00000845,0.00000384,0.00000311,0.00000290,-0.00000049,-0.
 00000204,-0.00000089,0.00000339,0.00000219,0.00000166,0.00000507,0.000
 00184,-0.00000012,0.00001586,0.00003658,0.00002050,0.00002490,0.000046
 94,0.00000210,0.00003887,-0.00012782,0.00006295,-0.00047441,-0.0001351
 8,-0.00023244,0.00015308,0.00004851,0.00011960,0.00030626,0.00024171,0
 .00017091,-0.00102036,0.00036910,-0.00006657,-0.00529527,-0.01937621,-
 0.01195002,0.00006982,-0.00005058,-0.00000268,0.00094757,0.00005959,0.
 00002175,-0.04401284,-0.26626532,-0.11488006,0.00291940,-0.00265366,0.
 00193389,-0.00030911,0.00066803,0.00016799,0.00152414,0.00274834,0.000
 66609,0.04447349,0.28204773,0.00000189,0.00000614,-0.00000360,0.000003
 38,-0.00000028,0.00000399,-0.00000765,0.00000123,0.00000496,0.00000406
 ,-0.00000428,-0.00000352,-0.00000248,-0.00000348,-0.00000197,-0.000004
 21,0.00000548,0.00000051,0.00000319,-0.00000097,0.00000670,-0.00000007
 ,0.00000049,0.00000143,-0.00000153,-0.00000076,0.00000100,-0.00000016,
 -0.00000152,0.00000163,-0.00000465,0.00000154,0.00000501,-0.00001176,0
 .00002936,-0.00001236,-0.00000573,-0.00003101,-0.00003857,0.00035473,-
 0.00002152,0.00028393,-0.00000107,-0.00000814,-0.00016805,-0.00017557,
 0.00003610,-0.00006420,0.00033469,0.00015416,0.00010413,0.00077081,0.0
 1061559,0.00708179,0.00001489,-0.00010162,-0.00006395,0.00006183,-0.00
 034223,0.00003153,-0.03184902,-0.11254156,-0.10977934,-0.00192576,0.00
 210841,0.00023274,0.00076152,-0.00085574,0.00053272,-0.00615848,-0.023
 24559,-0.00742895,0.04203448,0.12388457,0.10972230,0.00000120,0.000004
 16,0.00000423,-0.00000249,0.00000648,-0.00000794,0.00000256,0.00000194
 ,-0.00000134,0.00000011,-0.00000047,-0.00000436,-0.00000277,-0.0000021
 0,0.00000170,-0.00000306,-0.00000135,0.00000334,-0.00000033,0.00000125
 ,-0.00000433,-0.00000103,0.00000130,-0.00000124,-0.00000075,-0.0000002
 0,-0.00000024,-0.00000205,0.00000026,-0.00000130,0.00001548,0.00000361
 ,-0.00000123,-0.00002174,-0.00000471,0.00001563,0.00005238,-0.00013151
 ,0.00005319,0.00072641,0.00023036,-0.00040532,-0.00031085,0.00003787,0
 .00020113,-0.00012987,-0.00003426,0.00002963,0.00111580,-0.00100253,0.
 00063373,0.00565651,0.00033836,-0.00903281,-0.00010879,-0.00008363,0.0
 0011413,-0.00004234,0.00002300,-0.00000132,-0.00567152,0.01876523,-0.0
 0532593,0.00002884,-0.00009603,0.00019525,-0.00162632,0.00163165,-0.00
 069066,-0.11143863,0.11651601,-0.05159113,-0.00389218,-0.00129471,0.00
 422471,0.10998762,-0.00000405,-0.00000900,-0.00000344,0.00000238,0.000
 00066,-0.00000367,0.00000734,-0.00000783,-0.00000438,-0.00000399,0.000
 01039,0.00000357,0.00000614,0.00000491,0.00000039,0.00000759,-0.000004
 33,-0.00000437,-0.00000149,0.00000007,0.00000036,-0.00000005,-0.000001
 37,-0.00000064,0.00000246,0.00000070,0.00000023,0.00000224,0.00000132,
 0.00000019,0.00001049,0.00000556,0.00000116,0.00002030,-0.00000393,-0.
 00000165,0.00002398,-0.00001823,0.00003708,-0.00008092,0.00012111,-0.0
 0020346,-0.00000092,-0.00001179,0.00008462,0.00007179,-0.00002556,0.00
 004807,0.00037145,-0.00017230,0.00039509,0.00102761,0.00115073,-0.0021
 2771,-0.00005056,-0.00006587,0.00001601,0.00007503,-0.00000274,0.00000
 509,-0.00249815,0.00475242,-0.00258081,-0.00017244,0.00056642,-0.00008
 035,-0.00010885,0.00047738,-0.00002894,0.11921648,-0.26159698,0.070409
 71,-0.00108183,0.00074228,0.00126754,-0.12880486,0.26919840,0.00001367
 ,0.00002896,0.00001094,-0.00001651,-0.00000576,0.00002319,-0.00005155,
 0.00001173,0.00002382,0.00001948,-0.00003023,-0.00000541,-0.00001993,-
 0.00001724,-0.00000395,-0.00002274,0.00001402,0.00001265,0.00000190,-0
 .00000055,-0.00000029,-0.00000028,0.00000230,0.00000222,-0.00000532,-0
 .00000192,-0.00000181,-0.00000538,-0.00000271,0.00000043,-0.00006664,-
 0.00002600,-0.00000696,-0.00002411,0.00000512,-0.00000045,-0.00009706,
 0.00026733,-0.00017306,-0.00041444,-0.00089572,0.00048724,0.00007444,0
 .00012210,-0.00025660,0.00004529,0.00028665,0.00006373,-0.00096275,0.0
 0173812,-0.00108840,-0.00762403,-0.00319553,0.00381950,-0.00000105,0.0
 0007345,-0.00006121,0.00001497,-0.00001275,-0.00003940,-0.01220004,0.0
 2146647,-0.00349545,0.00011790,-0.00001358,0.00000842,0.00072479,-0.00
 051677,0.00019766,-0.05054134,0.06721444,-0.07452752,0.00427320,0.0010
 2203,-0.00270810,0.05983163,-0.07564111,0.07073712,0.00000193,-0.00000
 503,-0.00000066,-0.00000432,0.00000141,0.00000224,-0.00001761,-0.00000
 691,0.00000730,0.00000345,0.00000120,0.00000662,-0.00000072,-0.0000017
 1,-0.00000010,0.00000038,0.00000018,0.00000185,-0.00000049,0.00000086,
 -0.00000207,-0.00000099,0.00000031,-0.00000148,0.00000055,0.00000095,-
 0.00000173,0.00000090,0.00000117,-0.00000097,-0.00002236,0.00000375,-0
 .00000341,0.00002272,0.00000652,0.00000849,-0.00003058,0.00010126,-0.0
 0002764,-0.00046153,-0.00027118,-0.00004698,0.00013359,-0.00001004,0.0
 0003986,0.00012420,0.00005902,0.00013061,-0.00052829,0.00062255,-0.000
 49862,-0.00374014,-0.00261848,0.00469658,-0.00011712,0.00004357,-0.000
 05432,0.00007939,-0.00001966,0.00000369,0.00074894,-0.01881736,-0.0115
 7075,0.00001507,0.00070103,-0.00013292,0.00079712,-0.00027160,0.000553
 80,-0.05883998,-0.04519505,-0.03761262,0.00424846,0.00185751,-0.008422
 01,0.00566781,0.01196282,0.00693593,0.05191963,0.00000387,0.00000090,-
 0.00000074,-0.00000502,-0.00000094,0.00000362,-0.00001426,-0.00000071,
 0.00000629,0.00000477,-0.00000344,0.00000039,-0.00000302,-0.00000428,-
 0.00000094,-0.00000441,0.00000351,0.00000330,0.00000136,0.00000033,0.0
 0000013,-0.00000074,0.00000110,-0.00000039,-0.00000119,-0.00000004,-0.
 00000061,0.,-0.00000022,-0.00000034,-0.00001437,0.00000369,0.00000200,
 -0.00000318,0.00001160,0.00000489,-0.00000199,0.00002392,-0.00003144,-
 0.00004058,-0.00007832,0.00001406,0.00000474,0.00000771,0.00000231,-0.
 00001347,0.00002741,0.00002996,0.00002732,0.00018877,-0.00013005,-0.00
 039904,0.00136176,0.00233573,-0.00010805,-0.00000013,-0.00007142,0.000
 04460,-0.00008584,-0.00001718,0.00093990,0.00153026,-0.00010457,-0.000
 48621,0.00039099,-0.00040787,0.00024773,-0.00005699,0.00017816,-0.0475
 8808,-0.27002480,-0.12043849,0.00166153,0.00159462,-0.00095189,-0.0061
 0510,-0.01511239,-0.01189286,0.05185290,0.28022156,-0.00000481,-0.0000
 1041,-0.00000637,0.00001049,0.00000167,-0.00000412,0.00001661,-0.00000
 356,-0.00000843,-0.00000670,0.00001115,0.00000028,0.00000750,0.0000059
 0,0.00000005,0.00000798,-0.00000207,-0.00000513,0.00000170,0.00000028,
 0.00000299,0.00000052,-0.00000144,0.00000065,0.00000162,0.00000044,0.0
 0000179,0.00000220,0.00000021,0.00000078,0.00001689,0.00000955,0.00000
 783,0.00001111,0.00001163,-0.00000466,0.00002911,-0.00009093,0.0000483
 0,0.00013562,0.00014411,-0.00016819,-0.00003045,0.00002441,0.00005040,
 0.00003335,0.00004434,0.00002329,0.00046367,-0.00029802,0.00056573,0.0
 0488303,-0.00061129,-0.00295645,-0.00000938,-0.00007392,0.00004105,0.0
 0023244,0.00004314,0.00002115,-0.00625766,-0.02228466,-0.00714041,-0.0
 0041973,0.00102386,0.00002167,-0.00057182,0.00045021,-0.00023351,-0.03
 785552,-0.11736328,-0.11342638,-0.00844794,-0.00091069,0.00225825,0.00
 176085,0.00841146,0.00698168,0.04598931,0.13146793,0.11392778\\-0.0000
 0046,-0.00000233,0.00000206,-0.00001992,-0.00000222,0.00001420,0.00000
 626,0.00000330,-0.00000772,-0.00000268,0.00000043,-0.00000155,0.000005
 60,-0.00000275,-0.00000094,-0.00000127,0.00000297,0.00000076,0.0000015
 4,0.,-0.00000046,-0.00000106,0.00000098,0.00000241,-0.00000232,0.00000
 154,0.00000231,-0.00000260,-0.00000051,0.00000096,0.00000187,0.0000012
 2,0.00000274,0.00001279,0.00001646,-0.00000368,-0.00000752,-0.00002043
 ,-0.00000550,-0.00000549,0.00000128,-0.00001387,0.00000319,-0.00000025
 ,0.00001843,0.00000593,0.00000455,-0.00000234,0.00000366,-0.00000294,0
 .00000205,-0.00000130,-0.00000005,-0.00000333,-0.00000020,0.00000327,-
 0.00000086,-0.00000255,0.00000076,-0.00000299,0.00000551,0.00000265,0.
 00000165,0.00000163,-0.00000097,0.00000193,0.00000095,-0.00000225,-0.0
 0000216,-0.00000086,-0.00000193,-0.00000703,-0.00000217,-0.00000238,-0
 .00000162,0.00000028,-0.00000179,0.00000282,0.00000118,0.00000138,0.00
 000173\\\@
 The archive entry for this job was punched.


 NO HUMAN INVESTIGATION CAN BECOME REAL SCIENCE
 WITHOUT GOING THROUGH MATHEMATICAL PEOPLE.
 -- LEONARDO DA VINCI, IN "PENSIERI" CA. 1492
 Job cpu time:       0 days  0 hours 40 minutes 42.8 seconds.
 Elapsed time:       0 days  0 hours  0 minutes 28.2 seconds.
 File lengths (MBytes):  RWF=    252 Int=      0 D2E=      0 Chk=      7 Scr=      1
 Normal termination of Gaussian 16 at Thu Nov 20 13:57:24 2025.
