 Entering Gaussian System, Link 0=g16
 Initial command:
 /public/software/g16/l1.exe "/tmp/Gau-84691.inp" -scrdir="/tmp/"
 Entering Link 1 = /public/software/g16/l1.exe PID=     84692.
  
 Copyright (c) 1988-2021, Gaussian, Inc.  All Rights Reserved.
  
 This is part of the Gaussian(R) 16 program.  It is based on
 the Gaussian(R) 09 system (copyright 2009, Gaussian, Inc.),
 the Gaussian(R) 03 system (copyright 2003, Gaussian, Inc.),
 the Gaussian(R) 98 system (copyright 1998, Gaussian, Inc.),
 the Gaussian(R) 94 system (copyright 1995, Gaussian, Inc.),
 the Gaussian 92(TM) system (copyright 1992, Gaussian, Inc.),
 the Gaussian 90(TM) system (copyright 1990, Gaussian, Inc.),
 the Gaussian 88(TM) system (copyright 1988, Gaussian, Inc.),
 the Gaussian 86(TM) system (copyright 1986, Carnegie Mellon
 University), and the Gaussian 82(TM) system (copyright 1983,
 Carnegie Mellon University). Gaussian is a federally registered
 trademark of Gaussian, Inc.
  
 This software contains proprietary and confidential information,
 including trade secrets, belonging to Gaussian, Inc.
  
 This software is provided under written license and may be
 used, copied, transmitted, or stored only in accord with that
 written license.
  
 The following legend is applicable only to US Government
 contracts under FAR:
  
                    RESTRICTED RIGHTS LEGEND
  
 Use, reproduction and disclosure by the US Government is
 subject to restrictions as set forth in subparagraphs (a)
 and (c) of the Commercial Computer Software - Restricted
 Rights clause in FAR 52.227-19.
  
 Gaussian, Inc.
 340 Quinnipiac St., Bldg. 40, Wallingford CT 06492
  
  
 ---------------------------------------------------------------
 Warning -- This program may not be used in any manner that
 competes with the business of Gaussian, Inc. or will provide
 assistance to any competitor of Gaussian, Inc.  The licensee
 of this program is prohibited from giving any competitor of
 Gaussian, Inc. access to this program.  By using this program,
 the user acknowledges that Gaussian, Inc. is engaged in the
 business of creating and licensing software in the field of
 computational chemistry and represents and warrants to the
 licensee that it is not a competitor of Gaussian, Inc. and that
 it will not use this program in any manner prohibited above.
 ---------------------------------------------------------------
  

 Cite this work as:
 Gaussian 16, Revision C.02,
 M. J. Frisch, G. W. Trucks, H. B. Schlegel, G. E. Scuseria, 
 M. A. Robb, J. R. Cheeseman, G. Scalmani, V. Barone, 
 G. A. Petersson, H. Nakatsuji, X. Li, M. Caricato, A. V. Marenich, 
 J. Bloino, B. G. Janesko, R. Gomperts, B. Mennucci, H. P. Hratchian, 
 J. V. Ortiz, A. F. Izmaylov, J. L. Sonnenberg, D. Williams-Young, 
 F. Ding, F. Lipparini, F. Egidi, J. Goings, B. Peng, A. Petrone, 
 T. Henderson, D. Ranasinghe, V. G. Zakrzewski, J. Gao, N. Rega, 
 G. Zheng, W. Liang, M. Hada, M. Ehara, K. Toyota, R. Fukuda, 
 J. Hasegawa, M. Ishida, T. Nakajima, Y. Honda, O. Kitao, H. Nakai, 
 T. Vreven, K. Throssell, J. A. Montgomery, Jr., J. E. Peralta, 
 F. Ogliaro, M. J. Bearpark, J. J. Heyd, E. N. Brothers, K. N. Kudin, 
 V. N. Staroverov, T. A. Keith, R. Kobayashi, J. Normand, 
 K. Raghavachari, A. P. Rendell, J. C. Burant, S. S. Iyengar, 
 J. Tomasi, M. Cossi, J. M. Millam, M. Klene, C. Adamo, R. Cammi, 
 J. W. Ochterski, R. L. Martin, K. Morokuma, O. Farkas, 
 J. B. Foresman, and D. J. Fox, Gaussian, Inc., Wallingford CT, 2019.
 
 ******************************************
 Gaussian 16:  ES64L-G16RevC.02  7-Dec-2021
                20-Nov-2025 
 ******************************************
 %nprocshared=96
 Will use up to   96 processors via shared memory.
 %mem=10GB
 %chk=TS1.chk
 ---------------------------------------------
 # opt=(calcfc,ts,noeigen) freq 6-31g(d) m062x
 ---------------------------------------------
 1/5=1,10=4,11=1,18=20,26=3,38=1/1,3;
 2/9=110,12=2,17=6,18=5,40=1/2;
 3/5=1,6=6,7=1,11=2,25=1,30=1,71=2,74=-55,140=1/1,2,3;
 4//1;
 5/5=2,38=5/2;
 8/6=4,10=90,11=11/1;
 11/6=1,8=1,9=11,15=111,16=1/1,2,10;
 10/6=1,13=1/2;
 6/7=2,8=2,9=2,10=2,28=1/1;
 7/10=1,25=1/1,2,3,16;
 1/5=1,10=4,11=1,18=20,26=3/3(2);
 2/9=110/2;
 99//99;
 2/9=110/2;
 3/5=1,6=6,7=1,11=2,25=1,30=1,71=1,74=-55/1,2,3;
 4/5=5,16=3,69=1/1;
 5/5=2,38=5/2;
 7//1,2,3,16;
 1/5=1,11=1,18=20,26=3/3(-5);
 2/9=110/2;
 6/7=2,8=2,9=2,10=2,19=2,28=1/1;
 99/9=1/99;
 -------------------
 Title Card Required
 -------------------
 Symbolic Z-matrix:
 Charge =  0 Multiplicity = 2
 C                    -2.51806  -1.52447  -1.47623 
 C                    -1.47714  -1.09309  -0.63124 
 C                    -1.79309  -0.55552   0.645 
 C                    -3.11604  -0.43224   1.07754 
 C                    -4.12522  -0.86367   0.22451 
 C                    -3.82734  -1.4056   -1.04112 
 H                    -2.27239  -1.93817  -2.45444 
 H                    -3.3497   -0.01151   2.05589 
 H                    -5.16517  -0.78047   0.54225 
 H                    -4.64228  -1.73354  -1.68739 
 S                    -0.33365  -0.10454   1.48039 
 N                    -0.14093  -1.15084  -0.92309 
 C                     0.56155  -0.55784   0.01232 
 S                     2.27302  -1.07347   0.30395 
 O                     2.36358  -2.52599   0.23359 
 O                     2.67465  -0.37739   1.52757 
 C                     3.10022  -0.3199   -1.08543 
 C                     2.75242   1.15843  -1.01438 
 H                     2.70392  -0.82177  -1.97921 
 H                     4.16792  -0.54796  -0.96881 
 C                     1.26227   1.35077  -0.99578 
 H                     3.20872   1.59583  -0.11526 
 H                     3.18099   1.67482  -1.8904 
 C                     0.68673   2.5064   -0.2509 
 H                     0.74322   1.04738  -1.91049 
 H                     0.85646   2.35705   0.83205 
 H                     1.2725    3.41123  -0.50781 
 C                    -0.79261   2.7535   -0.53382 
 C                    -1.40281   3.78872   0.40154 
 H                    -1.34404   1.80374  -0.44571 
 H                    -0.90308   3.07292  -1.5827 
 H                    -2.4571    3.97908   0.15854 
 H                    -1.35213   3.44405   1.44579 
 H                    -0.86238   4.7453    0.33862 
 

 GradGradGradGradGradGradGradGradGradGradGradGradGradGradGradGradGradGrad
 Berny optimization.
 Initialization pass.
                           ----------------------------
                           !    Initial Parameters    !
                           ! (Angstroms and Degrees)  !
 --------------------------                            --------------------------
 ! Name  Definition              Value          Derivative Info.                !
 --------------------------------------------------------------------------------
 ! R1    R(1,2)                  1.4084         calculate D2E/DX2 analytically  !
 ! R2    R(1,6)                  1.3848         calculate D2E/DX2 analytically  !
 ! R3    R(1,7)                  1.0901         calculate D2E/DX2 analytically  !
 ! R4    R(2,3)                  1.4204         calculate D2E/DX2 analytically  !
 ! R5    R(2,12)                 1.3689         calculate D2E/DX2 analytically  !
 ! R6    R(3,4)                  1.3973         calculate D2E/DX2 analytically  !
 ! R7    R(3,11)                 1.741          calculate D2E/DX2 analytically  !
 ! R8    R(4,5)                  1.3901         calculate D2E/DX2 analytically  !
 ! R9    R(4,8)                  1.0903         calculate D2E/DX2 analytically  !
 ! R10   R(5,6)                  1.4086         calculate D2E/DX2 analytically  !
 ! R11   R(5,9)                  1.0906         calculate D2E/DX2 analytically  !
 ! R12   R(6,10)                 1.0906         calculate D2E/DX2 analytically  !
 ! R13   R(11,13)                1.7782         calculate D2E/DX2 analytically  !
 ! R14   R(12,13)                1.3115         calculate D2E/DX2 analytically  !
 ! R15   R(13,14)                1.8111         calculate D2E/DX2 analytically  !
 ! R16   R(14,15)                1.457          calculate D2E/DX2 analytically  !
 ! R17   R(14,16)                1.4639         calculate D2E/DX2 analytically  !
 ! R18   R(14,17)                1.784          calculate D2E/DX2 analytically  !
 ! R19   R(17,18)                1.5203         calculate D2E/DX2 analytically  !
 ! R20   R(17,19)                1.099          calculate D2E/DX2 analytically  !
 ! R21   R(17,20)                1.098          calculate D2E/DX2 analytically  !
 ! R22   R(18,21)                1.5026         calculate D2E/DX2 analytically  !
 ! R23   R(18,22)                1.0991         calculate D2E/DX2 analytically  !
 ! R24   R(18,23)                1.1035         calculate D2E/DX2 analytically  !
 ! R25   R(21,24)                1.4905         calculate D2E/DX2 analytically  !
 ! R26   R(21,25)                1.0946         calculate D2E/DX2 analytically  !
 ! R27   R(24,26)                1.1063         calculate D2E/DX2 analytically  !
 ! R28   R(24,27)                1.1081         calculate D2E/DX2 analytically  !
 ! R29   R(24,28)                1.5263         calculate D2E/DX2 analytically  !
 ! R30   R(28,29)                1.5228         calculate D2E/DX2 analytically  !
 ! R31   R(28,30)                1.1018         calculate D2E/DX2 analytically  !
 ! R32   R(28,31)                1.102          calculate D2E/DX2 analytically  !
 ! R33   R(29,32)                1.0986         calculate D2E/DX2 analytically  !
 ! R34   R(29,33)                1.1008         calculate D2E/DX2 analytically  !
 ! R35   R(29,34)                1.1005         calculate D2E/DX2 analytically  !
 ! A1    A(2,1,6)              118.9451         calculate D2E/DX2 analytically  !
 ! A2    A(2,1,7)              119.2119         calculate D2E/DX2 analytically  !
 ! A3    A(6,1,7)              121.8424         calculate D2E/DX2 analytically  !
 ! A4    A(1,2,3)              119.3789         calculate D2E/DX2 analytically  !
 ! A5    A(1,2,12)             125.4914         calculate D2E/DX2 analytically  !
 ! A6    A(3,2,12)             115.1278         calculate D2E/DX2 analytically  !
 ! A7    A(2,3,4)              121.4744         calculate D2E/DX2 analytically  !
 ! A8    A(2,3,11)             110.041          calculate D2E/DX2 analytically  !
 ! A9    A(4,3,11)             128.4815         calculate D2E/DX2 analytically  !
 ! A10   A(3,4,5)              118.0355         calculate D2E/DX2 analytically  !
 ! A11   A(3,4,8)              120.978          calculate D2E/DX2 analytically  !
 ! A12   A(5,4,8)              120.9864         calculate D2E/DX2 analytically  !
 ! A13   A(4,5,6)              121.1479         calculate D2E/DX2 analytically  !
 ! A14   A(4,5,9)              119.3289         calculate D2E/DX2 analytically  !
 ! A15   A(6,5,9)              119.5232         calculate D2E/DX2 analytically  !
 ! A16   A(1,6,5)              121.0154         calculate D2E/DX2 analytically  !
 ! A17   A(1,6,10)             119.6371         calculate D2E/DX2 analytically  !
 ! A18   A(5,6,10)             119.3473         calculate D2E/DX2 analytically  !
 ! A19   A(3,11,13)             87.6981         calculate D2E/DX2 analytically  !
 ! A20   A(2,12,13)            110.5903         calculate D2E/DX2 analytically  !
 ! A21   A(11,13,12)           115.7494         calculate D2E/DX2 analytically  !
 ! A22   A(11,13,14)           114.5424         calculate D2E/DX2 analytically  !
 ! A23   A(12,13,14)           119.4898         calculate D2E/DX2 analytically  !
 ! A24   A(13,14,15)           109.5592         calculate D2E/DX2 analytically  !
 ! A25   A(13,14,16)           104.9799         calculate D2E/DX2 analytically  !
 ! A26   A(13,14,17)           101.0993         calculate D2E/DX2 analytically  !
 ! A27   A(15,14,16)           119.8233         calculate D2E/DX2 analytically  !
 ! A28   A(15,14,17)           110.7734         calculate D2E/DX2 analytically  !
 ! A29   A(16,14,17)           108.8387         calculate D2E/DX2 analytically  !
 ! A30   A(14,17,18)           105.5614         calculate D2E/DX2 analytically  !
 ! A31   A(14,17,19)           105.8598         calculate D2E/DX2 analytically  !
 ! A32   A(14,17,20)           106.2863         calculate D2E/DX2 analytically  !
 ! A33   A(18,17,19)           113.5504         calculate D2E/DX2 analytically  !
 ! A34   A(18,17,20)           114.8002         calculate D2E/DX2 analytically  !
 ! A35   A(19,17,20)           110.0098         calculate D2E/DX2 analytically  !
 ! A36   A(17,18,21)           110.6039         calculate D2E/DX2 analytically  !
 ! A37   A(17,18,22)           109.2825         calculate D2E/DX2 analytically  !
 ! A38   A(17,18,23)           109.2124         calculate D2E/DX2 analytically  !
 ! A39   A(21,18,22)           110.5273         calculate D2E/DX2 analytically  !
 ! A40   A(21,18,23)           109.5773         calculate D2E/DX2 analytically  !
 ! A41   A(22,18,23)           107.5752         calculate D2E/DX2 analytically  !
 ! A42   A(18,21,24)           119.2334         calculate D2E/DX2 analytically  !
 ! A43   A(18,21,25)           115.1143         calculate D2E/DX2 analytically  !
 ! A44   A(24,21,25)           116.7061         calculate D2E/DX2 analytically  !
 ! A45   A(21,24,26)           108.9833         calculate D2E/DX2 analytically  !
 ! A46   A(21,24,27)           108.2476         calculate D2E/DX2 analytically  !
 ! A47   A(21,24,28)           114.026          calculate D2E/DX2 analytically  !
 ! A48   A(26,24,27)           104.8382         calculate D2E/DX2 analytically  !
 ! A49   A(26,24,28)           110.61           calculate D2E/DX2 analytically  !
 ! A50   A(27,24,28)           109.7066         calculate D2E/DX2 analytically  !
 ! A51   A(24,28,29)           112.6181         calculate D2E/DX2 analytically  !
 ! A52   A(24,28,30)           109.313          calculate D2E/DX2 analytically  !
 ! A53   A(24,28,31)           108.6939         calculate D2E/DX2 analytically  !
 ! A54   A(29,28,30)           109.6545         calculate D2E/DX2 analytically  !
 ! A55   A(29,28,31)           110.3292         calculate D2E/DX2 analytically  !
 ! A56   A(30,28,31)           106.0105         calculate D2E/DX2 analytically  !
 ! A57   A(28,29,32)           111.4995         calculate D2E/DX2 analytically  !
 ! A58   A(28,29,33)           110.5709         calculate D2E/DX2 analytically  !
 ! A59   A(28,29,34)           111.0399         calculate D2E/DX2 analytically  !
 ! A60   A(32,29,33)           107.9552         calculate D2E/DX2 analytically  !
 ! A61   A(32,29,34)           107.9401         calculate D2E/DX2 analytically  !
 ! A62   A(33,29,34)           107.6853         calculate D2E/DX2 analytically  !
 ! D1    D(6,1,2,3)              0.3517         calculate D2E/DX2 analytically  !
 ! D2    D(6,1,2,12)           179.8283         calculate D2E/DX2 analytically  !
 ! D3    D(7,1,2,3)           -179.8965         calculate D2E/DX2 analytically  !
 ! D4    D(7,1,2,12)            -0.4199         calculate D2E/DX2 analytically  !
 ! D5    D(2,1,6,5)             -0.012          calculate D2E/DX2 analytically  !
 ! D6    D(2,1,6,10)           179.8318         calculate D2E/DX2 analytically  !
 ! D7    D(7,1,6,5)           -179.757          calculate D2E/DX2 analytically  !
 ! D8    D(7,1,6,10)             0.0868         calculate D2E/DX2 analytically  !
 ! D9    D(1,2,3,4)             -0.6373         calculate D2E/DX2 analytically  !
 ! D10   D(1,2,3,11)           179.9525         calculate D2E/DX2 analytically  !
 ! D11   D(12,2,3,4)           179.8335         calculate D2E/DX2 analytically  !
 ! D12   D(12,2,3,11)            0.4232         calculate D2E/DX2 analytically  !
 ! D13   D(1,2,12,13)          174.0398         calculate D2E/DX2 analytically  !
 ! D14   D(3,2,12,13)           -6.464          calculate D2E/DX2 analytically  !
 ! D15   D(2,3,4,5)              0.5561         calculate D2E/DX2 analytically  !
 ! D16   D(2,3,4,8)           -179.5381         calculate D2E/DX2 analytically  !
 ! D17   D(11,3,4,5)           179.8483         calculate D2E/DX2 analytically  !
 ! D18   D(11,3,4,8)            -0.2458         calculate D2E/DX2 analytically  !
 ! D19   D(2,3,11,13)            3.942          calculate D2E/DX2 analytically  !
 ! D20   D(4,3,11,13)         -175.4154         calculate D2E/DX2 analytically  !
 ! D21   D(3,4,5,6)             -0.2057         calculate D2E/DX2 analytically  !
 ! D22   D(3,4,5,9)            179.7905         calculate D2E/DX2 analytically  !
 ! D23   D(8,4,5,6)            179.8884         calculate D2E/DX2 analytically  !
 ! D24   D(8,4,5,9)             -0.1153         calculate D2E/DX2 analytically  !
 ! D25   D(4,5,6,1)             -0.0637         calculate D2E/DX2 analytically  !
 ! D26   D(4,5,6,10)          -179.908          calculate D2E/DX2 analytically  !
 ! D27   D(9,5,6,1)            179.9401         calculate D2E/DX2 analytically  !
 ! D28   D(9,5,6,10)             0.0958         calculate D2E/DX2 analytically  !
 ! D29   D(3,11,13,12)          -8.157          calculate D2E/DX2 analytically  !
 ! D30   D(3,11,13,14)        -153.3484         calculate D2E/DX2 analytically  !
 ! D31   D(2,12,13,11)           9.7694         calculate D2E/DX2 analytically  !
 ! D32   D(2,12,13,14)         153.146          calculate D2E/DX2 analytically  !
 ! D33   D(11,13,14,15)        102.5479         calculate D2E/DX2 analytically  !
 ! D34   D(11,13,14,16)        -27.3493         calculate D2E/DX2 analytically  !
 ! D35   D(11,13,14,17)       -140.4986         calculate D2E/DX2 analytically  !
 ! D36   D(12,13,14,15)        -41.2467         calculate D2E/DX2 analytically  !
 ! D37   D(12,13,14,16)       -171.1439         calculate D2E/DX2 analytically  !
 ! D38   D(12,13,14,17)         75.7068         calculate D2E/DX2 analytically  !
 ! D39   D(13,14,17,18)         55.3751         calculate D2E/DX2 analytically  !
 ! D40   D(13,14,17,19)        -65.3079         calculate D2E/DX2 analytically  !
 ! D41   D(13,14,17,20)        177.7175         calculate D2E/DX2 analytically  !
 ! D42   D(15,14,17,18)        171.4344         calculate D2E/DX2 analytically  !
 ! D43   D(15,14,17,19)         50.7514         calculate D2E/DX2 analytically  !
 ! D44   D(15,14,17,20)        -66.2231         calculate D2E/DX2 analytically  !
 ! D45   D(16,14,17,18)        -54.8219         calculate D2E/DX2 analytically  !
 ! D46   D(16,14,17,19)       -175.5049         calculate D2E/DX2 analytically  !
 ! D47   D(16,14,17,20)         67.5206         calculate D2E/DX2 analytically  !
 ! D48   D(14,17,18,21)        -55.5712         calculate D2E/DX2 analytically  !
 ! D49   D(14,17,18,22)         66.3267         calculate D2E/DX2 analytically  !
 ! D50   D(14,17,18,23)       -176.2418         calculate D2E/DX2 analytically  !
 ! D51   D(19,17,18,21)         59.9493         calculate D2E/DX2 analytically  !
 ! D52   D(19,17,18,22)       -178.1527         calculate D2E/DX2 analytically  !
 ! D53   D(19,17,18,23)        -60.7213         calculate D2E/DX2 analytically  !
 ! D54   D(20,17,18,21)       -172.2737         calculate D2E/DX2 analytically  !
 ! D55   D(20,17,18,22)        -50.3758         calculate D2E/DX2 analytically  !
 ! D56   D(20,17,18,23)         67.0557         calculate D2E/DX2 analytically  !
 ! D57   D(17,18,21,24)        148.1368         calculate D2E/DX2 analytically  !
 ! D58   D(17,18,21,25)        -65.6507         calculate D2E/DX2 analytically  !
 ! D59   D(22,18,21,24)         26.9735         calculate D2E/DX2 analytically  !
 ! D60   D(22,18,21,25)        173.186          calculate D2E/DX2 analytically  !
 ! D61   D(23,18,21,24)        -91.4101         calculate D2E/DX2 analytically  !
 ! D62   D(23,18,21,25)         54.8024         calculate D2E/DX2 analytically  !
 ! D63   D(18,21,24,26)        -67.471          calculate D2E/DX2 analytically  !
 ! D64   D(18,21,24,27)         46.0183         calculate D2E/DX2 analytically  !
 ! D65   D(18,21,24,28)        168.4105         calculate D2E/DX2 analytically  !
 ! D66   D(25,21,24,26)        146.8391         calculate D2E/DX2 analytically  !
 ! D67   D(25,21,24,27)        -99.6716         calculate D2E/DX2 analytically  !
 ! D68   D(25,21,24,28)         22.7206         calculate D2E/DX2 analytically  !
 ! D69   D(21,24,28,29)        170.7685         calculate D2E/DX2 analytically  !
 ! D70   D(21,24,28,30)         48.6206         calculate D2E/DX2 analytically  !
 ! D71   D(21,24,28,31)        -66.6641         calculate D2E/DX2 analytically  !
 ! D72   D(26,24,28,29)         47.5286         calculate D2E/DX2 analytically  !
 ! D73   D(26,24,28,30)        -74.6193         calculate D2E/DX2 analytically  !
 ! D74   D(26,24,28,31)        170.0961         calculate D2E/DX2 analytically  !
 ! D75   D(27,24,28,29)        -67.6426         calculate D2E/DX2 analytically  !
 ! D76   D(27,24,28,30)        170.2095         calculate D2E/DX2 analytically  !
 ! D77   D(27,24,28,31)         54.9249         calculate D2E/DX2 analytically  !
 ! D78   D(24,28,29,32)        177.9268         calculate D2E/DX2 analytically  !
 ! D79   D(24,28,29,33)        -61.9593         calculate D2E/DX2 analytically  !
 ! D80   D(24,28,29,34)         57.5141         calculate D2E/DX2 analytically  !
 ! D81   D(30,28,29,32)        -60.1183         calculate D2E/DX2 analytically  !
 ! D82   D(30,28,29,33)         59.9956         calculate D2E/DX2 analytically  !
 ! D83   D(30,28,29,34)        179.469          calculate D2E/DX2 analytically  !
 ! D84   D(31,28,29,32)         56.2829         calculate D2E/DX2 analytically  !
 ! D85   D(31,28,29,33)        176.3968         calculate D2E/DX2 analytically  !
 ! D86   D(31,28,29,34)        -64.1298         calculate D2E/DX2 analytically  !
 --------------------------------------------------------------------------------
 Trust Radius=3.00D-01 FncErr=1.00D-07 GrdErr=1.00D-06 EigMax=2.50D+02 EigMin=1.00D-04
 Number of steps in this run=    193 maximum allowed number of steps=    204.
 Search for a saddle point of order  1.
 GradGradGradGradGradGradGradGradGradGradGradGradGradGradGradGradGradGrad

                          Input orientation:                          
 ---------------------------------------------------------------------
 Center     Atomic      Atomic             Coordinates (Angstroms)
 Number     Number       Type             X           Y           Z
 ---------------------------------------------------------------------
      1          6           0       -2.518064   -1.524470   -1.476227
      2          6           0       -1.477139   -1.093086   -0.631236
      3          6           0       -1.793087   -0.555520    0.644999
      4          6           0       -3.116037   -0.432241    1.077542
      5          6           0       -4.125220   -0.863671    0.224506
      6          6           0       -3.827336   -1.405603   -1.041122
      7          1           0       -2.272394   -1.938174   -2.454443
      8          1           0       -3.349695   -0.011512    2.055893
      9          1           0       -5.165173   -0.780465    0.542248
     10          1           0       -4.642278   -1.733543   -1.687391
     11         16           0       -0.333650   -0.104543    1.480387
     12          7           0       -0.140928   -1.150843   -0.923085
     13          6           0        0.561547   -0.557836    0.012318
     14         16           0        2.273018   -1.073465    0.303949
     15          8           0        2.363578   -2.525985    0.233585
     16          8           0        2.674650   -0.377386    1.527565
     17          6           0        3.100219   -0.319895   -1.085429
     18          6           0        2.752422    1.158432   -1.014381
     19          1           0        2.703916   -0.821766   -1.979213
     20          1           0        4.167918   -0.547960   -0.968811
     21          6           0        1.262271    1.350774   -0.995775
     22          1           0        3.208722    1.595827   -0.115264
     23          1           0        3.180993    1.674815   -1.890396
     24          6           0        0.686733    2.506403   -0.250904
     25          1           0        0.743221    1.047383   -1.910489
     26          1           0        0.856463    2.357054    0.832053
     27          1           0        1.272503    3.411233   -0.507813
     28          6           0       -0.792610    2.753496   -0.533815
     29          6           0       -1.402811    3.788719    0.401544
     30          1           0       -1.344042    1.803741   -0.445707
     31          1           0       -0.903077    3.072919   -1.582696
     32          1           0       -2.457103    3.979080    0.158540
     33          1           0       -1.352131    3.444048    1.445790
     34          1           0       -0.862383    4.745301    0.338622
 ---------------------------------------------------------------------
                    Distance matrix (angstroms):
                    1          2          3          4          5
     1  C    0.000000
     2  C    1.408413   0.000000
     3  C    2.442142   1.420414   0.000000
     4  C    2.841174   2.458175   1.397315   0.000000
     5  C    2.431481   2.792357   2.389689   1.390055   0.000000
     6  C    1.384788   2.406055   2.775575   2.437646   1.408630
     7  H    1.090143   2.161177   3.427537   3.931219   3.429911
     8  H    3.931479   3.449193   2.170160   1.090312   2.163699
     9  H    3.411007   3.882833   3.381142   2.146336   1.090590
    10  H    2.144898   3.397610   3.865963   3.415795   2.163187
    11  S    3.940739   2.596870   1.741037   2.830432   4.065651
    12  N    2.469077   1.368931   2.354342   3.656524   4.156202
    13  C    3.554455   2.203836   2.438153   3.830809   4.701526
    14  S    5.130974   3.865053   4.113124   5.481927   6.402169
    15  O    5.268483   4.189537   4.618426   5.926399   6.698348
    16  O    6.107606   4.733920   4.557557   5.808406   6.940653
    17  C    5.759238   4.664367   5.195608   6.582773   7.363327
    18  C    5.932056   4.806799   5.133500   6.430023   7.275005
    19  H    5.293001   4.401350   5.213484   6.585388   7.176018
    20  H    6.775943   5.681354   6.175599   7.566832   8.384499
    21  C    4.773761   3.689134   3.957437   5.162109   5.951295
    22  H    6.662173   5.427133   5.497671   6.748216   7.742821
    23  H    6.548756   5.562819   6.011996   7.273302   8.018570
    24  C    5.293399   4.217027   4.040733   4.986126   5.893921
    25  H    4.176002   3.338876   3.941152   5.100146   5.649075
    26  H    5.637536   4.414791   3.941851   4.860163   5.963166
    27  H    6.298205   5.278698   5.144118   6.045240   6.924342
    28  C    4.708113   3.908230   3.652416   4.259543   4.976468
    29  C    5.744544   4.990409   4.368524   4.605282   5.393291
    30  H    3.676586   2.905812   2.637687   3.234172   3.911422
    31  H    4.873962   4.311661   4.349749   4.925465   5.398604
    32  H    5.741537   5.225987   4.608704   4.553956   5.122422
    33  H    5.880795   4.991518   4.102713   4.274645   5.266688
    34  H    6.733868   5.950236   5.390620   5.694901   6.489969
                    6          7          8          9         10
     6  C    0.000000
     7  H    2.167707   0.000000
     8  H    3.429742   5.021527   0.000000
     9  H    2.165102   4.323033   2.485633   0.000000
    10  H    1.090568   2.499318   4.318372   2.480538   0.000000
    11  S    4.500734   4.754347   3.071871   4.967956   5.590414
    12  N    3.697085   2.740090   4.524220   5.246658   4.602809
    13  C    4.592465   4.002682   4.446626   5.755494   5.599205
    14  S    6.255705   5.386763   5.984309   7.447773   7.226511
    15  O    6.419311   5.391034   6.502682   7.734611   7.307539
    16  O    7.066202   6.539548   6.058525   7.911773   8.106327
    17  C    7.012257   5.775638   7.180835   8.436715   7.893480
    18  C    7.061742   6.075485   6.930453   8.298839   7.968566
    19  H    6.624057   5.122096   7.320164   8.263294   7.408310
    20  H    8.041447   6.754067   8.121029   9.457481   8.918605
    21  C    5.788244   5.043684   5.695501   6.944043   6.697391
    22  H    7.705317   6.928460   7.092975   8.729330   8.671476
    23  H    7.702397   6.565917   7.814524   9.033529   8.535906
    24  C    6.025368   5.776355   5.287150   6.758505   6.959813
    25  H    5.259556   4.278244   5.797017   6.653275   6.065222
    26  H    6.293198   6.248183   4.979925   6.796184   7.301831
    27  H    7.035246   6.706103   6.297022   7.753492   7.927469
    28  C    5.173493   5.281131   4.570617   5.724168   6.023637
    29  C    5.911056   6.458339   4.579190   5.920524   6.734476
    30  H    4.101360   4.347273   3.684534   4.717544   4.993247
    31  H    5.376035   5.267450   5.360875   6.126126   6.090539
    32  H    5.684324   6.471143   4.507937   5.489457   6.388780
    33  H    5.985857   6.710217   4.037745   5.762134   6.888348
    34  H    6.966223   7.379579   5.635868   7.006394   7.769669
                   11         12         13         14         15
    11  S    0.000000
    12  N    2.628415   0.000000
    13  C    1.778223   1.311529   0.000000
    14  S    3.019526   2.709010   1.811092   0.000000
    15  O    3.833137   3.082442   2.677664   1.457040   0.000000
    16  O    3.021016   3.812007   2.606480   1.463923   2.527376
    17  C    4.291998   3.349905   2.776062   1.783956   2.673812
    18  C    4.164470   3.703047   2.966415   2.636131   3.909418
    19  H    4.659404   3.052349   2.936937   2.337061   2.813657
    20  H    5.143861   4.351059   3.737462   2.342375   2.934959
    21  C    3.285771   2.869205   2.269374   2.930499   4.213486
    22  H    4.240962   4.406464   3.414978   2.859441   4.222002
    23  H    5.184690   4.467124   3.932753   3.632163   4.777676
    24  C    3.294782   3.809501   3.078071   3.954696   5.326487
    25  H    3.739602   2.566882   2.511358   3.426662   4.471193
    26  H    2.810012   4.047300   3.042289   3.748864   5.145253
    27  H    4.346648   4.794035   4.065649   4.666102   6.081996
    28  C    3.526477   3.977447   3.618967   4.974490   6.198657
    29  C    4.179054   5.267472   4.785681   6.096071   7.354548
    30  H    2.893489   3.225669   3.068893   4.682245   5.740593
    31  H    4.450055   4.342364   4.227479   5.553333   6.731838
    32  H    4.788769   5.731552   5.451352   6.922673   8.096942
    33  H    3.692018   5.309577   4.661768   5.903679   7.135631
    34  H    5.010406   6.072637   5.500665   6.609840   7.955467
                   16         17         18         19         20
    16  O    0.000000
    17  C    2.648047   0.000000
    18  C    2.970905   1.520349   0.000000
    19  H    3.534943   1.098991   2.203279   0.000000
    20  H    2.913904   1.097996   2.217539   1.799773   0.000000
    21  C    3.368768   2.485403   1.502628   2.786650   3.471124
    22  H    2.622535   2.150113   1.099061   3.094170   2.498884
    23  H    4.018752   2.152525   1.103507   2.543306   2.600782
    24  C    3.928232   3.809108   2.582052   4.258261   4.686488
    25  H    4.192923   2.847036   2.202778   2.709754   3.893639
    26  H    3.356591   3.984625   2.905284   4.628304   4.758986
    27  H    4.523540   4.194699   2.742605   4.704492   4.926577
    28  C    5.106232   4.990404   3.916941   5.205513   5.974585
    29  C    5.937175   6.274478   5.117540   6.617385   7.191500
    30  H    4.980061   4.966944   4.185789   5.062696   6.015467
    31  H    5.863315   5.271133   4.165443   5.323175   6.261199
    32  H    6.869346   7.135298   6.039118   7.365747   8.102834
    33  H    5.552028   6.355923   5.303191   6.810237   7.227542
    34  H    6.337674   6.586831   5.269066   7.005932   7.418350
                   21         22         23         24         25
    21  C    0.000000
    22  H    2.150354   0.000000
    23  H    2.141692   1.777105   0.000000
    24  C    1.490488   2.684767   3.098517   0.000000
    25  H    1.094605   3.098761   2.517302   2.210464   0.000000
    26  H    2.125614   2.647640   3.644258   1.106304   3.041315
    27  H    2.117476   2.683046   2.927288   1.108082   2.799183
    28  C    2.530528   4.186411   4.335134   1.526286   2.676720
    29  C    3.872820   5.132456   5.543721   2.536970   4.179219
    30  H    2.701966   4.569473   4.751809   2.157714   2.659761
    31  H    2.828249   4.608910   4.327702   2.149908   2.630692
    32  H    4.698317   6.152758   6.426189   3.495730   4.808098
    33  H    4.144651   5.162770   5.899961   2.813346   4.625917
    34  H    4.221088   5.167117   5.544844   2.785671   4.616391
                   26         27         28         29         30
    26  H    0.000000
    27  H    1.754886   0.000000
    28  C    2.177660   2.167484   0.000000
    29  C    2.709118   2.850742   1.522803   0.000000
    30  H    2.604045   3.071514   1.101760   2.159034   0.000000
    31  H    3.072370   2.450098   1.101992   2.167790   1.760116
    32  H    3.750241   3.830984   2.179896   1.098554   2.517165
    33  H    2.536950   3.272055   2.169968   1.100825   2.503684
    34  H    2.983560   2.655923   2.175615   1.100487   3.082198
                   31         32         33         34
    31  H    0.000000
    32  H    2.503603   0.000000
    33  H    3.084009   1.778830   0.000000
    34  H    2.547544   1.778386   1.777339   0.000000
 Stoichiometry    C13H16NO2S2(2)
 Framework group  C1[X(C13H16NO2S2)]
 Deg. of freedom    96
 Full point group                 C1      NOp   1
 Largest Abelian subgroup         C1      NOp   1
 Largest concise Abelian subgroup C1      NOp   1
                         Standard orientation:                         
 ---------------------------------------------------------------------
 Center     Atomic      Atomic             Coordinates (Angstroms)
 Number     Number       Type             X           Y           Z
 ---------------------------------------------------------------------
      1          6           0       -2.518064   -1.524470   -1.476227
      2          6           0       -1.477139   -1.093086   -0.631236
      3          6           0       -1.793087   -0.555520    0.644999
      4          6           0       -3.116037   -0.432242    1.077542
      5          6           0       -4.125220   -0.863672    0.224506
      6          6           0       -3.827336   -1.405604   -1.041122
      7          1           0       -2.272394   -1.938174   -2.454443
      8          1           0       -3.349695   -0.011513    2.055893
      9          1           0       -5.165173   -0.780466    0.542248
     10          1           0       -4.642278   -1.733544   -1.687391
     11         16           0       -0.333650   -0.104543    1.480387
     12          7           0       -0.140928   -1.150843   -0.923085
     13          6           0        0.561547   -0.557836    0.012318
     14         16           0        2.273018   -1.073465    0.303949
     15          8           0        2.363578   -2.525985    0.233585
     16          8           0        2.674650   -0.377386    1.527565
     17          6           0        3.100219   -0.319894   -1.085429
     18          6           0        2.752422    1.158433   -1.014381
     19          1           0        2.703916   -0.821766   -1.979213
     20          1           0        4.167918   -0.547959   -0.968811
     21          6           0        1.262271    1.350774   -0.995775
     22          1           0        3.208722    1.595828   -0.115264
     23          1           0        3.180993    1.674816   -1.890396
     24          6           0        0.686733    2.506403   -0.250904
     25          1           0        0.743221    1.047383   -1.910489
     26          1           0        0.856463    2.357054    0.832053
     27          1           0        1.272502    3.411233   -0.507813
     28          6           0       -0.792611    2.753496   -0.533815
     29          6           0       -1.402812    3.788719    0.401544
     30          1           0       -1.344042    1.803741   -0.445707
     31          1           0       -0.903078    3.072919   -1.582696
     32          1           0       -2.457104    3.979080    0.158540
     33          1           0       -1.352132    3.444048    1.445790
     34          1           0       -0.862384    4.745301    0.338622
 ---------------------------------------------------------------------
 Rotational constants (GHZ):           0.5163040           0.3038415           0.2386588
 Standard basis: 6-31G(d) (6D, 7F)
 There are   310 symmetry adapted cartesian basis functions of A   symmetry.
 There are   310 symmetry adapted basis functions of A   symmetry.
   310 basis functions,   616 primitive gaussians,   310 cartesian basis functions
    75 alpha electrons       74 beta electrons
       nuclear repulsion energy      1700.8027482054 Hartrees.
 NAtoms=   34 NActive=   34 NUniq=   34 SFac= 1.00D+00 NAtFMM=   60 NAOKFM=F Big=F
 Integral buffers will be    131072 words long.
 Raffenetti 2 integral format.
 Two-electron integral symmetry is turned on.
 One-electron integrals computed using PRISM.
 NBasis=   310 RedAO= T EigKep=  4.57D-04  NBF=   310
 NBsUse=   310 1.00D-06 EigRej= -1.00D+00 NBFU=   310
 ExpMin= 1.17D-01 ExpMax= 2.19D+04 ExpMxC= 3.30D+03 IAcc=3 IRadAn=         5 AccDes= 0.00D+00
 Harris functional with IExCor= 1009 and IRadAn=       5 diagonalized for initial guess.
 HarFok:  IExCor= 1009 AccDes= 0.00D+00 IRadAn=         5 IDoV= 1 UseB2=F ITyADJ=14
 ICtDFT=  3500011 ScaDFX=  1.000000  1.000000  1.000000  1.000000
 FoFCou: FMM=F IPFlag=           0 FMFlag=      100000 FMFlg1=           0
         NFxFlg=           0 DoJE=T BraDBF=F KetDBF=T FulRan=T
         wScrn=  0.000000 ICntrl=       500 IOpCl=  0 I1Cent=   200000004 NGrid=           0
         NMat0=    1 NMatS0=      1 NMatT0=    0 NMatD0=    1 NMtDS0=    0 NMtDT0=    0
 Petite list used in FoFCou.
 Initial guess <Sx>= 0.0000 <Sy>= 0.0000 <Sz>= 0.5000 <S**2>= 0.7500 S= 0.5000
 Requested convergence on RMS density matrix=1.00D-08 within 128 cycles.
 Requested convergence on MAX density matrix=1.00D-06.
 Requested convergence on             energy=1.00D-06.
 No special actions if energy rises.
 Integral accuracy reduced to 1.0D-05 until final iterations.
 Initial convergence to 1.0D-05 achieved.  Increase integral accuracy.
 SCF Done:  E(UM062X) =  -1506.09155460     A.U. after   21 cycles
            NFock= 21  Conv=0.66D-08     -V/T= 2.0057
 <Sx>= 0.0000 <Sy>= 0.0000 <Sz>= 0.5000 <S**2>= 0.7795 S= 0.5146
 <L.S>=  0.00000000000    
 Annihilation of the first spin contaminant:
 S**2 before annihilation     0.7795,   after     0.7504
 DoSCS=F DFT=T ScalE2(SS,OS)=  1.000000  1.000000
 Range of M.O.s used for correlation:     1   310
 NBasis=   310 NAE=    75 NBE=    74 NFC=     0 NFV=     0
 NROrb=    310 NOA=    75 NOB=    74 NVA=   235 NVB=   236
 Symmetrizing basis deriv contribution to polar:
 IMax=3 JMax=2 DiffMx= 0.00D+00
 G2DrvN: will do    35 centers at a time, making    1 passes.
 Calling FoFCou, ICntrl=  3107 FMM=F I1Cent=   0 AccDes= 0.00D+00.
 End of G2Drv F.D. properties file   721 does not exist.
 End of G2Drv F.D. properties file   722 does not exist.
 End of G2Drv F.D. properties file   788 does not exist.
          IDoAtm=1111111111111111111111111111111111
          Differentiating once with respect to nuclear coordinates.
 CalDSu exits because no D1Ps are significant.
          There are   105 degrees of freedom in the 1st order CPHF.  IDoFFX=6 NUNeed=     0.
     99 vectors produced by pass  0 Test12= 3.51D-14 1.00D-09 XBig12= 4.00D-01 1.21D-01.
 AX will form    33 AO Fock derivatives at one time.
     99 vectors produced by pass  1 Test12= 3.51D-14 1.00D-09 XBig12= 8.06D-02 7.69D-02.
     99 vectors produced by pass  2 Test12= 3.51D-14 1.00D-09 XBig12= 3.70D-03 1.38D-02.
     99 vectors produced by pass  3 Test12= 3.51D-14 1.00D-09 XBig12= 5.91D-05 1.10D-03.
     99 vectors produced by pass  4 Test12= 3.51D-14 1.00D-09 XBig12= 6.43D-07 7.04D-05.
     99 vectors produced by pass  5 Test12= 3.51D-14 1.00D-09 XBig12= 5.75D-09 6.15D-06.
     91 vectors produced by pass  6 Test12= 3.51D-14 1.00D-09 XBig12= 3.69D-11 4.58D-07.
     45 vectors produced by pass  7 Test12= 3.51D-14 1.00D-09 XBig12= 2.46D-13 4.53D-08.
      4 vectors produced by pass  8 Test12= 3.51D-14 1.00D-09 XBig12= 1.45D-15 2.44D-09.
 InvSVY:  IOpt=1 It=  1 EMax= 7.22D-16
 Solved reduced A of dimension   734 with   105 vectors.
 End of Minotr F.D. properties file   721 does not exist.
 End of Minotr F.D. properties file   722 does not exist.
 End of Minotr F.D. properties file   788 does not exist.

 **********************************************************************

            Population analysis using the SCF Density.

 **********************************************************************

 Orbital symmetries:
 Alpha Orbitals:
       Occupied  (A) (A) (A) (A) (A) (A) (A) (A) (A) (A) (A) (A)
                 (A) (A) (A) (A) (A) (A) (A) (A) (A) (A) (A) (A)
                 (A) (A) (A) (A) (A) (A) (A) (A) (A) (A) (A) (A)
                 (A) (A) (A) (A) (A) (A) (A) (A) (A) (A) (A) (A)
                 (A) (A) (A) (A) (A) (A) (A) (A) (A) (A) (A) (A)
                 (A) (A) (A) (A) (A) (A) (A) (A) (A) (A) (A) (A)
                 (A) (A) (A)
       Virtual   (A) (A) (A) (A) (A) (A) (A) (A) (A) (A) (A) (A)
                 (A) (A) (A) (A) (A) (A) (A) (A) (A) (A) (A) (A)
                 (A) (A) (A) (A) (A) (A) (A) (A) (A) (A) (A) (A)
                 (A) (A) (A) (A) (A) (A) (A) (A) (A) (A) (A) (A)
                 (A) (A) (A) (A) (A) (A) (A) (A) (A) (A) (A) (A)
                 (A) (A) (A) (A) (A) (A) (A) (A) (A) (A) (A) (A)
                 (A) (A) (A) (A) (A) (A) (A) (A) (A) (A) (A) (A)
                 (A) (A) (A) (A) (A) (A) (A) (A) (A) (A) (A) (A)
                 (A) (A) (A) (A) (A) (A) (A) (A) (A) (A) (A) (A)
                 (A) (A) (A) (A) (A) (A) (A) (A) (A) (A) (A) (A)
                 (A) (A) (A) (A) (A) (A) (A) (A) (A) (A) (A) (A)
                 (A) (A) (A) (A) (A) (A) (A) (A) (A) (A) (A) (A)
                 (A) (A) (A) (A) (A) (A) (A) (A) (A) (A) (A) (A)
                 (A) (A) (A) (A) (A) (A) (A) (A) (A) (A) (A) (A)
                 (A) (A) (A) (A) (A) (A) (A) (A) (A) (A) (A) (A)
                 (A) (A) (A) (A) (A) (A) (A) (A) (A) (A) (A) (A)
                 (A) (A) (A) (A) (A) (A) (A) (A) (A) (A) (A) (A)
                 (A) (A) (A) (A) (A) (A) (A) (A) (A) (A) (A) (A)
                 (A) (A) (A) (A) (A) (A) (A) (A) (A) (A) (A) (A)
                 (A) (A) (A) (A) (A) (A) (A)
 Beta  Orbitals:
       Occupied  (A) (A) (A) (A) (A) (A) (A) (A) (A) (A) (A) (A)
                 (A) (A) (A) (A) (A) (A) (A) (A) (A) (A) (A) (A)
                 (A) (A) (A) (A) (A) (A) (A) (A) (A) (A) (A) (A)
                 (A) (A) (A) (A) (A) (A) (A) (A) (A) (A) (A) (A)
                 (A) (A) (A) (A) (A) (A) (A) (A) (A) (A) (A) (A)
                 (A) (A) (A) (A) (A) (A) (A) (A) (A) (A) (A) (A)
                 (A) (A)
       Virtual   (A) (A) (A) (A) (A) (A) (A) (A) (A) (A) (A) (A)
                 (A) (A) (A) (A) (A) (A) (A) (A) (A) (A) (A) (A)
                 (A) (A) (A) (A) (A) (A) (A) (A) (A) (A) (A) (A)
                 (A) (A) (A) (A) (A) (A) (A) (A) (A) (A) (A) (A)
                 (A) (A) (A) (A) (A) (A) (A) (A) (A) (A) (A) (A)
                 (A) (A) (A) (A) (A) (A) (A) (A) (A) (A) (A) (A)
                 (A) (A) (A) (A) (A) (A) (A) (A) (A) (A) (A) (A)
                 (A) (A) (A) (A) (A) (A) (A) (A) (A) (A) (A) (A)
                 (A) (A) (A) (A) (A) (A) (A) (A) (A) (A) (A) (A)
                 (A) (A) (A) (A) (A) (A) (A) (A) (A) (A) (A) (A)
                 (A) (A) (A) (A) (A) (A) (A) (A) (A) (A) (A) (A)
                 (A) (A) (A) (A) (A) (A) (A) (A) (A) (A) (A) (A)
                 (A) (A) (A) (A) (A) (A) (A) (A) (A) (A) (A) (A)
                 (A) (A) (A) (A) (A) (A) (A) (A) (A) (A) (A) (A)
                 (A) (A) (A) (A) (A) (A) (A) (A) (A) (A) (A) (A)
                 (A) (A) (A) (A) (A) (A) (A) (A) (A) (A) (A) (A)
                 (A) (A) (A) (A) (A) (A) (A) (A) (A) (A) (A) (A)
                 (A) (A) (A) (A) (A) (A) (A) (A) (A) (A) (A) (A)
                 (A) (A) (A) (A) (A) (A) (A) (A) (A) (A) (A) (A)
                 (A) (A) (A) (A) (A) (A) (A) (A)
 The electronic state is 2-A.
 Alpha  occ. eigenvalues --  -90.13883 -89.96370 -19.63400 -19.63387 -14.77906
 Alpha  occ. eigenvalues --  -10.64736 -10.59903 -10.59843 -10.59837 -10.59223
 Alpha  occ. eigenvalues --  -10.58077 -10.57284 -10.56833 -10.56638 -10.56446
 Alpha  occ. eigenvalues --  -10.55884 -10.54956 -10.54006  -8.45402  -8.30825
 Alpha  occ. eigenvalues --   -6.37547  -6.37525  -6.37447  -6.22828  -6.22617
 Alpha  occ. eigenvalues --   -6.22354  -1.22682  -1.11710  -1.09062  -0.96598
 Alpha  occ. eigenvalues --   -0.95122  -0.90820  -0.90250  -0.85419  -0.84019
 Alpha  occ. eigenvalues --   -0.83585  -0.78128  -0.75081  -0.69534  -0.68855
 Alpha  occ. eigenvalues --   -0.68422  -0.67130  -0.64421  -0.59482  -0.58324
 Alpha  occ. eigenvalues --   -0.57223  -0.56836  -0.54971  -0.54522  -0.53674
 Alpha  occ. eigenvalues --   -0.51896  -0.51133  -0.51058  -0.50101  -0.49576
 Alpha  occ. eigenvalues --   -0.47631  -0.47055  -0.46916  -0.46054  -0.43741
 Alpha  occ. eigenvalues --   -0.43724  -0.42012  -0.41194  -0.40800  -0.40134
 Alpha  occ. eigenvalues --   -0.39795  -0.39554  -0.38807  -0.37787  -0.37083
 Alpha  occ. eigenvalues --   -0.36676  -0.34520  -0.31601  -0.29493  -0.23564
 Alpha virt. eigenvalues --   -0.00692   0.01944   0.04444   0.05330   0.08661
 Alpha virt. eigenvalues --    0.11711   0.12668   0.13332   0.14109   0.14547
 Alpha virt. eigenvalues --    0.15177   0.15900   0.16575   0.17403   0.17789
 Alpha virt. eigenvalues --    0.18632   0.18863   0.19905   0.20184   0.20798
 Alpha virt. eigenvalues --    0.21466   0.21864   0.21977   0.22243   0.22751
 Alpha virt. eigenvalues --    0.23189   0.24815   0.25778   0.28429   0.29509
 Alpha virt. eigenvalues --    0.30235   0.30763   0.31546   0.32103   0.34605
 Alpha virt. eigenvalues --    0.35258   0.39579   0.41326   0.41603   0.42773
 Alpha virt. eigenvalues --    0.43004   0.45666   0.47954   0.48825   0.51725
 Alpha virt. eigenvalues --    0.52880   0.54047   0.54727   0.56357   0.57266
 Alpha virt. eigenvalues --    0.58072   0.58365   0.59086   0.59885   0.61171
 Alpha virt. eigenvalues --    0.62379   0.62593   0.63671   0.63975   0.64565
 Alpha virt. eigenvalues --    0.64743   0.65449   0.66744   0.67288   0.68609
 Alpha virt. eigenvalues --    0.69605   0.69848   0.71203   0.72315   0.73769
 Alpha virt. eigenvalues --    0.75420   0.76281   0.78279   0.79433   0.79895
 Alpha virt. eigenvalues --    0.83388   0.83748   0.85028   0.85496   0.86085
 Alpha virt. eigenvalues --    0.86980   0.88415   0.88833   0.89188   0.89504
 Alpha virt. eigenvalues --    0.89931   0.90314   0.91667   0.92176   0.93192
 Alpha virt. eigenvalues --    0.93669   0.94626   0.95380   0.95786   0.96054
 Alpha virt. eigenvalues --    0.97072   0.97409   0.98339   0.98948   1.00014
 Alpha virt. eigenvalues --    1.00902   1.01385   1.02789   1.02994   1.03943
 Alpha virt. eigenvalues --    1.06388   1.07127   1.07608   1.08304   1.09765
 Alpha virt. eigenvalues --    1.10463   1.13132   1.13669   1.15173   1.15567
 Alpha virt. eigenvalues --    1.16442   1.19007   1.19459   1.20458   1.23342
 Alpha virt. eigenvalues --    1.23769   1.28020   1.29534   1.30738   1.32159
 Alpha virt. eigenvalues --    1.34684   1.39460   1.40011   1.40914   1.43653
 Alpha virt. eigenvalues --    1.44791   1.46866   1.48572   1.49598   1.51302
 Alpha virt. eigenvalues --    1.52547   1.53455   1.56244   1.58003   1.58390
 Alpha virt. eigenvalues --    1.60706   1.64516   1.67680   1.71422   1.72992
 Alpha virt. eigenvalues --    1.74148   1.77371   1.80111   1.81391   1.84101
 Alpha virt. eigenvalues --    1.85299   1.86112   1.86988   1.87919   1.88440
 Alpha virt. eigenvalues --    1.90026   1.90593   1.91406   1.93006   1.95074
 Alpha virt. eigenvalues --    1.96385   1.97086   1.98664   1.99746   2.00080
 Alpha virt. eigenvalues --    2.02136   2.02313   2.04120   2.04321   2.06838
 Alpha virt. eigenvalues --    2.08293   2.08854   2.11605   2.12215   2.13927
 Alpha virt. eigenvalues --    2.16008   2.16819   2.17164   2.18070   2.20423
 Alpha virt. eigenvalues --    2.22089   2.23278   2.24164   2.26414   2.28155
 Alpha virt. eigenvalues --    2.28805   2.31840   2.33137   2.33780   2.37082
 Alpha virt. eigenvalues --    2.38446   2.39893   2.40868   2.43110   2.46096
 Alpha virt. eigenvalues --    2.47493   2.49811   2.52394   2.53915   2.60270
 Alpha virt. eigenvalues --    2.60842   2.62045   2.65904   2.67722   2.67945
 Alpha virt. eigenvalues --    2.68924   2.74402   2.76041   2.79794   2.81443
 Alpha virt. eigenvalues --    2.82216   2.83330   2.88629   2.93601   3.00019
 Alpha virt. eigenvalues --    3.17087   3.38446   3.92206   3.98894   4.04434
 Alpha virt. eigenvalues --    4.08968   4.10175   4.12476   4.14610   4.19348
 Alpha virt. eigenvalues --    4.24155   4.29659   4.34585   4.35733   4.39234
 Alpha virt. eigenvalues --    4.41908   4.43585   4.55046   4.63079   4.71217
  Beta  occ. eigenvalues --  -90.13850 -89.96327 -19.63387 -19.63372 -14.77554
  Beta  occ. eigenvalues --  -10.64904 -10.59932 -10.59817 -10.59798 -10.58683
  Beta  occ. eigenvalues --  -10.58114 -10.57315 -10.56775 -10.56593 -10.56466
  Beta  occ. eigenvalues --  -10.55926 -10.54955 -10.54006  -8.45386  -8.30810
  Beta  occ. eigenvalues --   -6.37515  -6.37469  -6.37438  -6.22806  -6.22599
  Beta  occ. eigenvalues --   -6.22248  -1.22627  -1.11664  -1.08450  -0.96360
  Beta  occ. eigenvalues --   -0.94435  -0.90606  -0.90013  -0.85281  -0.83568
  Beta  occ. eigenvalues --   -0.83258  -0.77938  -0.74798  -0.69299  -0.68636
  Beta  occ. eigenvalues --   -0.68182  -0.66051  -0.64287  -0.59246  -0.57896
  Beta  occ. eigenvalues --   -0.57012  -0.56598  -0.54572  -0.54305  -0.53389
  Beta  occ. eigenvalues --   -0.51668  -0.50824  -0.50746  -0.49509  -0.49046
  Beta  occ. eigenvalues --   -0.47347  -0.46848  -0.46593  -0.45664  -0.43620
  Beta  occ. eigenvalues --   -0.43292  -0.41454  -0.41030  -0.40443  -0.40068
  Beta  occ. eigenvalues --   -0.39564  -0.39381  -0.38586  -0.37271  -0.36959
  Beta  occ. eigenvalues --   -0.36080  -0.33852  -0.30270  -0.28661
  Beta virt. eigenvalues --   -0.07606   0.02108   0.02818   0.04605   0.06819
  Beta virt. eigenvalues --    0.08753   0.11756   0.12747   0.13410   0.14256
  Beta virt. eigenvalues --    0.14725   0.15214   0.16111   0.16599   0.17607
  Beta virt. eigenvalues --    0.17822   0.18664   0.18930   0.20122   0.20256
  Beta virt. eigenvalues --    0.20997   0.21656   0.21956   0.22084   0.22369
  Beta virt. eigenvalues --    0.22873   0.23442   0.25135   0.26018   0.28531
  Beta virt. eigenvalues --    0.29695   0.30552   0.31007   0.32087   0.32922
  Beta virt. eigenvalues --    0.34745   0.35390   0.39737   0.41443   0.41670
  Beta virt. eigenvalues --    0.43018   0.43141   0.45976   0.48066   0.49017
  Beta virt. eigenvalues --    0.52013   0.53077   0.54184   0.54951   0.56621
  Beta virt. eigenvalues --    0.57564   0.58365   0.58816   0.59285   0.60510
  Beta virt. eigenvalues --    0.61299   0.62531   0.62665   0.63926   0.64241
  Beta virt. eigenvalues --    0.64776   0.65019   0.65630   0.67160   0.67664
  Beta virt. eigenvalues --    0.68777   0.69733   0.70154   0.72099   0.72635
  Beta virt. eigenvalues --    0.74157   0.75586   0.76648   0.78850   0.79679
  Beta virt. eigenvalues --    0.80318   0.83675   0.84240   0.85349   0.85765
  Beta virt. eigenvalues --    0.86357   0.87273   0.88520   0.89011   0.89541
  Beta virt. eigenvalues --    0.89797   0.90002   0.90771   0.91790   0.92340
  Beta virt. eigenvalues --    0.93649   0.93878   0.94836   0.95479   0.95994
  Beta virt. eigenvalues --    0.96236   0.97229   0.97607   0.98611   0.99378
  Beta virt. eigenvalues --    1.00119   1.01279   1.01549   1.02923   1.03225
  Beta virt. eigenvalues --    1.04256   1.06553   1.07325   1.07899   1.08487
  Beta virt. eigenvalues --    1.09981   1.10873   1.13347   1.14151   1.15225
  Beta virt. eigenvalues --    1.15895   1.16622   1.19168   1.19597   1.20591
  Beta virt. eigenvalues --    1.23474   1.24045   1.28177   1.29803   1.30811
  Beta virt. eigenvalues --    1.32498   1.34818   1.39772   1.40404   1.41300
  Beta virt. eigenvalues --    1.44023   1.44921   1.47220   1.48850   1.49929
  Beta virt. eigenvalues --    1.51670   1.52892   1.53688   1.56636   1.58314
  Beta virt. eigenvalues --    1.59143   1.61029   1.65030   1.67985   1.71948
  Beta virt. eigenvalues --    1.73379   1.74620   1.77668   1.80542   1.81580
  Beta virt. eigenvalues --    1.84598   1.85655   1.86312   1.87455   1.88256
  Beta virt. eigenvalues --    1.88672   1.90266   1.91144   1.92001   1.93136
  Beta virt. eigenvalues --    1.95459   1.96658   1.98614   1.98869   2.00007
  Beta virt. eigenvalues --    2.00287   2.02421   2.02852   2.04608   2.05015
  Beta virt. eigenvalues --    2.07490   2.08455   2.09283   2.11977   2.12655
  Beta virt. eigenvalues --    2.14006   2.16233   2.17004   2.17922   2.18109
  Beta virt. eigenvalues --    2.20491   2.22395   2.23863   2.25689   2.26698
  Beta virt. eigenvalues --    2.28751   2.29029   2.32136   2.33697   2.34376
  Beta virt. eigenvalues --    2.37272   2.38597   2.40617   2.41158   2.43356
  Beta virt. eigenvalues --    2.46793   2.47804   2.50590   2.52700   2.54344
  Beta virt. eigenvalues --    2.61024   2.61173   2.62473   2.66218   2.68199
  Beta virt. eigenvalues --    2.68815   2.69588   2.74667   2.76384   2.81172
  Beta virt. eigenvalues --    2.82650   2.83142   2.85133   2.88789   2.93880
  Beta virt. eigenvalues --    3.00278   3.17366   3.38652   3.92301   3.99072
  Beta virt. eigenvalues --    4.04634   4.09650   4.10472   4.12925   4.14727
  Beta virt. eigenvalues --    4.19489   4.24246   4.30143   4.34546   4.36202
  Beta virt. eigenvalues --    4.39298   4.42194   4.43560   4.55109   4.65006
  Beta virt. eigenvalues --    4.71362
          Condensed to atoms (all electrons):
               1          2          3          4          5          6
     1  C    4.953583   0.523473  -0.075230  -0.039311  -0.040310   0.547156
     2  C    0.523473   4.605242   0.452103  -0.003350  -0.035632  -0.015472
     3  C   -0.075230   0.452103   5.280409   0.479861  -0.038088  -0.039327
     4  C   -0.039311  -0.003350   0.479861   4.940543   0.554873  -0.033569
     5  C   -0.040310  -0.035632  -0.038088   0.554873   4.870918   0.532762
     6  C    0.547156  -0.015472  -0.039327  -0.033569   0.532762   4.892716
     7  H    0.357818  -0.030568   0.006816   0.000020   0.003890  -0.039949
     8  H    0.000524   0.002413  -0.037763   0.368866  -0.032629   0.003554
     9  H    0.003724   0.000628   0.004350  -0.037984   0.370368  -0.036349
    10  H   -0.034130   0.002941   0.000599   0.004105  -0.037161   0.368593
    11  S    0.006779  -0.071561   0.281930  -0.059625   0.003806   0.000228
    12  N   -0.066073   0.400177  -0.093126   0.008863  -0.000007   0.004633
    13  C    0.007958  -0.078566  -0.046933   0.003393  -0.000118  -0.000219
    14  S   -0.000353  -0.000416   0.001964  -0.000050   0.000003   0.000004
    15  O   -0.000005   0.000106  -0.000109  -0.000001   0.000000  -0.000000
    16  O    0.000000  -0.000110   0.000283   0.000001  -0.000000   0.000000
    17  C    0.000008  -0.000161  -0.000012   0.000001  -0.000000  -0.000000
    18  C    0.000003  -0.000096   0.000029   0.000001  -0.000000  -0.000000
    19  H   -0.000006   0.000071  -0.000004  -0.000000   0.000000  -0.000000
    20  H   -0.000000   0.000003   0.000000  -0.000000   0.000000   0.000000
    21  C    0.000132   0.002443  -0.000570   0.000014  -0.000001  -0.000006
    22  H   -0.000000   0.000003  -0.000003  -0.000000   0.000000  -0.000000
    23  H    0.000000  -0.000001  -0.000000   0.000000   0.000000  -0.000000
    24  C   -0.000010  -0.000259   0.000064  -0.000003   0.000001   0.000001
    25  H   -0.000048   0.001016   0.000243  -0.000015   0.000000  -0.000000
    26  H   -0.000001  -0.000019  -0.000226   0.000001   0.000000   0.000000
    27  H    0.000000  -0.000008  -0.000015  -0.000000  -0.000000   0.000000
    28  C    0.000038  -0.000553  -0.004768  -0.000599   0.000050   0.000011
    29  C   -0.000001   0.000013   0.000163   0.000111  -0.000005  -0.000000
    30  H    0.000210   0.003013   0.003310   0.000668   0.000006  -0.000181
    31  H   -0.000002   0.000029   0.000088   0.000008  -0.000001  -0.000000
    32  H   -0.000000   0.000001   0.000001   0.000023   0.000002   0.000000
    33  H   -0.000000   0.000002   0.000039   0.000047  -0.000001  -0.000000
    34  H   -0.000000  -0.000000  -0.000002  -0.000000   0.000000  -0.000000
               7          8          9         10         11         12
     1  C    0.357818   0.000524   0.003724  -0.034130   0.006779  -0.066073
     2  C   -0.030568   0.002413   0.000628   0.002941  -0.071561   0.400177
     3  C    0.006816  -0.037763   0.004350   0.000599   0.281930  -0.093126
     4  C    0.000020   0.368866  -0.037984   0.004105  -0.059625   0.008863
     5  C    0.003890  -0.032629   0.370368  -0.037161   0.003806  -0.000007
     6  C   -0.039949   0.003554  -0.036349   0.368593   0.000228   0.004633
     7  H    0.523627   0.000013  -0.000121  -0.004340  -0.000140  -0.002283
     8  H    0.000013   0.517182  -0.004183  -0.000135  -0.002470  -0.000110
     9  H   -0.000121  -0.004183   0.530350  -0.004212  -0.000130   0.000002
    10  H   -0.004340  -0.000135  -0.004212   0.530194   0.000017  -0.000088
    11  S   -0.000140  -0.002470  -0.000130   0.000017  15.396165  -0.075633
    12  N   -0.002283  -0.000110   0.000002  -0.000088  -0.075633   7.006310
    13  C   -0.000166  -0.000028   0.000000   0.000004   0.252100   0.278804
    14  S    0.000011  -0.000000  -0.000000  -0.000000  -0.030221  -0.014858
    15  O    0.000000  -0.000000   0.000000   0.000000   0.000613  -0.000919
    16  O    0.000000   0.000000  -0.000000   0.000000   0.014588   0.002023
    17  C   -0.000000   0.000000   0.000000   0.000000   0.003574  -0.001937
    18  C   -0.000000  -0.000000   0.000000   0.000000  -0.000067   0.001817
    19  H    0.000002   0.000000   0.000000  -0.000000   0.000145   0.003566
    20  H    0.000000   0.000000  -0.000000  -0.000000  -0.000057  -0.000043
    21  C   -0.000006  -0.000001   0.000000  -0.000000  -0.027669  -0.038189
    22  H    0.000000  -0.000000   0.000000   0.000000   0.000067  -0.000018
    23  H   -0.000000  -0.000000   0.000000  -0.000000  -0.000044  -0.000095
    24  C    0.000001  -0.000000   0.000000  -0.000000  -0.002166   0.000819
    25  H    0.000030   0.000000   0.000000  -0.000000   0.001421   0.004392
    26  H    0.000000   0.000001   0.000000   0.000000   0.006186   0.000225
    27  H    0.000000  -0.000000   0.000000  -0.000000   0.000326  -0.000053
    28  C    0.000000  -0.000020  -0.000000   0.000000   0.000360   0.000221
    29  C   -0.000000   0.000008  -0.000000  -0.000000  -0.001010   0.000005
    30  H    0.000012  -0.000007   0.000003  -0.000002  -0.004720  -0.000930
    31  H   -0.000000   0.000000  -0.000000   0.000000   0.000246   0.000005
    32  H   -0.000000   0.000001  -0.000000   0.000000  -0.000017   0.000000
    33  H    0.000000   0.000021  -0.000000  -0.000000   0.001319   0.000001
    34  H    0.000000  -0.000000   0.000000  -0.000000  -0.000003  -0.000000
              13         14         15         16         17         18
     1  C    0.007958  -0.000353  -0.000005   0.000000   0.000008   0.000003
     2  C   -0.078566  -0.000416   0.000106  -0.000110  -0.000161  -0.000096
     3  C   -0.046933   0.001964  -0.000109   0.000283  -0.000012   0.000029
     4  C    0.003393  -0.000050  -0.000001   0.000001   0.000001   0.000001
     5  C   -0.000118   0.000003   0.000000  -0.000000  -0.000000  -0.000000
     6  C   -0.000219   0.000004  -0.000000   0.000000  -0.000000  -0.000000
     7  H   -0.000166   0.000011   0.000000   0.000000  -0.000000  -0.000000
     8  H   -0.000028  -0.000000  -0.000000   0.000000   0.000000  -0.000000
     9  H    0.000000  -0.000000   0.000000  -0.000000   0.000000   0.000000
    10  H    0.000004  -0.000000   0.000000   0.000000   0.000000   0.000000
    11  S    0.252100  -0.030221   0.000613   0.014588   0.003574  -0.000067
    12  N    0.278804  -0.014858  -0.000919   0.002023  -0.001937   0.001817
    13  C    5.890187   0.098555  -0.058943  -0.051681  -0.066681  -0.018207
    14  S    0.098555  13.697739   0.493708   0.410984   0.195974  -0.022302
    15  O   -0.058943   0.493708   8.183079  -0.045778  -0.059220   0.002409
    16  O   -0.051681   0.410984  -0.045778   8.307124  -0.060594   0.000283
    17  C   -0.066681   0.195974  -0.059220  -0.060594   5.649879   0.269534
    18  C   -0.018207  -0.022302   0.002409   0.000283   0.269534   5.175345
    19  H   -0.002965  -0.010858  -0.000111   0.001756   0.350593  -0.033204
    20  H    0.003100  -0.018397   0.000305  -0.000496   0.365301  -0.023769
    21  C    0.077234  -0.018151   0.000310  -0.001437  -0.056768   0.339355
    22  H   -0.001154  -0.001666   0.000010   0.007796  -0.039056   0.382662
    23  H    0.000702   0.004050  -0.000024   0.000103  -0.032616   0.365256
    24  C   -0.007887  -0.000281  -0.000003  -0.000572   0.003641  -0.039058
    25  H   -0.016647  -0.001494  -0.000021   0.000059   0.000365  -0.041523
    26  H   -0.005328   0.000757  -0.000000   0.001025  -0.000115  -0.002799
    27  H    0.001228   0.000040   0.000000  -0.000004   0.000112  -0.003539
    28  C   -0.000589  -0.000007  -0.000000   0.000008  -0.000138   0.003855
    29  C    0.000015  -0.000003  -0.000000  -0.000000   0.000002  -0.000134
    30  H   -0.000155   0.000036  -0.000000   0.000002  -0.000004   0.000168
    31  H   -0.000093  -0.000002  -0.000000  -0.000000  -0.000002  -0.000103
    32  H   -0.000001  -0.000000   0.000000   0.000000  -0.000000   0.000001
    33  H   -0.000012  -0.000002  -0.000000  -0.000000   0.000000  -0.000003
    34  H   -0.000000   0.000000   0.000000   0.000000   0.000000   0.000003
              19         20         21         22         23         24
     1  C   -0.000006  -0.000000   0.000132  -0.000000   0.000000  -0.000010
     2  C    0.000071   0.000003   0.002443   0.000003  -0.000001  -0.000259
     3  C   -0.000004   0.000000  -0.000570  -0.000003  -0.000000   0.000064
     4  C   -0.000000  -0.000000   0.000014  -0.000000   0.000000  -0.000003
     5  C    0.000000   0.000000  -0.000001   0.000000   0.000000   0.000001
     6  C   -0.000000   0.000000  -0.000006  -0.000000  -0.000000   0.000001
     7  H    0.000002   0.000000  -0.000006   0.000000  -0.000000   0.000001
     8  H    0.000000   0.000000  -0.000001  -0.000000  -0.000000  -0.000000
     9  H    0.000000  -0.000000   0.000000   0.000000   0.000000   0.000000
    10  H   -0.000000  -0.000000  -0.000000   0.000000  -0.000000  -0.000000
    11  S    0.000145  -0.000057  -0.027669   0.000067  -0.000044  -0.002166
    12  N    0.003566  -0.000043  -0.038189  -0.000018  -0.000095   0.000819
    13  C   -0.002965   0.003100   0.077234  -0.001154   0.000702  -0.007887
    14  S   -0.010858  -0.018397  -0.018151  -0.001666   0.004050  -0.000281
    15  O   -0.000111   0.000305   0.000310   0.000010  -0.000024  -0.000003
    16  O    0.001756  -0.000496  -0.001437   0.007796   0.000103  -0.000572
    17  C    0.350593   0.365301  -0.056768  -0.039056  -0.032616   0.003641
    18  C   -0.033204  -0.023769   0.339355   0.382662   0.365256  -0.039058
    19  H    0.470555  -0.016602  -0.002770   0.003948  -0.003816   0.000028
    20  H   -0.016602   0.450204   0.003949  -0.002179  -0.001804  -0.000095
    21  C   -0.002770   0.003949   5.286932  -0.039851  -0.031189   0.367875
    22  H    0.003948  -0.002179  -0.039851   0.499170  -0.025664  -0.003076
    23  H   -0.003816  -0.001804  -0.031189  -0.025664   0.532564  -0.000810
    24  C    0.000028  -0.000095   0.367875  -0.003076  -0.000810   5.068875
    25  H    0.002956  -0.000116   0.371311   0.004125  -0.003774  -0.041837
    26  H    0.000005  -0.000004  -0.040182   0.003081  -0.000135   0.375613
    27  H   -0.000004   0.000005  -0.044708   0.000316   0.001637   0.371324
    28  C    0.000002   0.000001  -0.037847   0.000144  -0.000108   0.361522
    29  C    0.000000  -0.000000   0.003953   0.000000   0.000001  -0.048370
    30  H   -0.000000   0.000000   0.000092   0.000001   0.000003  -0.048156
    31  H   -0.000001  -0.000000  -0.002832   0.000006   0.000005  -0.039803
    32  H    0.000000   0.000000  -0.000125   0.000000  -0.000000   0.004286
    33  H   -0.000000   0.000000   0.000013  -0.000001   0.000000  -0.005079
    34  H   -0.000000   0.000000   0.000099   0.000000  -0.000000  -0.004396
              25         26         27         28         29         30
     1  C   -0.000048  -0.000001   0.000000   0.000038  -0.000001   0.000210
     2  C    0.001016  -0.000019  -0.000008  -0.000553   0.000013   0.003013
     3  C    0.000243  -0.000226  -0.000015  -0.004768   0.000163   0.003310
     4  C   -0.000015   0.000001  -0.000000  -0.000599   0.000111   0.000668
     5  C    0.000000   0.000000  -0.000000   0.000050  -0.000005   0.000006
     6  C   -0.000000   0.000000   0.000000   0.000011  -0.000000  -0.000181
     7  H    0.000030   0.000000   0.000000   0.000000  -0.000000   0.000012
     8  H    0.000000   0.000001  -0.000000  -0.000020   0.000008  -0.000007
     9  H    0.000000   0.000000   0.000000  -0.000000  -0.000000   0.000003
    10  H   -0.000000   0.000000  -0.000000   0.000000  -0.000000  -0.000002
    11  S    0.001421   0.006186   0.000326   0.000360  -0.001010  -0.004720
    12  N    0.004392   0.000225  -0.000053   0.000221   0.000005  -0.000930
    13  C   -0.016647  -0.005328   0.001228  -0.000589   0.000015  -0.000155
    14  S   -0.001494   0.000757   0.000040  -0.000007  -0.000003   0.000036
    15  O   -0.000021  -0.000000   0.000000  -0.000000  -0.000000  -0.000000
    16  O    0.000059   0.001025  -0.000004   0.000008  -0.000000   0.000002
    17  C    0.000365  -0.000115   0.000112  -0.000138   0.000002  -0.000004
    18  C   -0.041523  -0.002799  -0.003539   0.003855  -0.000134   0.000168
    19  H    0.002956   0.000005  -0.000004   0.000002   0.000000  -0.000000
    20  H   -0.000116  -0.000004   0.000005   0.000001  -0.000000   0.000000
    21  C    0.371311  -0.040182  -0.044708  -0.037847   0.003953   0.000092
    22  H    0.004125   0.003081   0.000316   0.000144   0.000000   0.000001
    23  H   -0.003774  -0.000135   0.001637  -0.000108   0.000001   0.000003
    24  C   -0.041837   0.375613   0.371324   0.361522  -0.048370  -0.048156
    25  H    0.530321   0.004600   0.000381  -0.003330   0.000171   0.000073
    26  H    0.004600   0.544668  -0.034929  -0.038126  -0.002525  -0.003928
    27  H    0.000381  -0.034929   0.579377  -0.036397  -0.002136   0.005146
    28  C   -0.003330  -0.038126  -0.036397   5.024729   0.359094   0.385979
    29  C    0.000171  -0.002525  -0.002136   0.359094   5.093621  -0.037228
    30  H    0.000073  -0.003928   0.005146   0.385979  -0.037228   0.570270
    31  H    0.003440   0.004994  -0.006029   0.385814  -0.036511  -0.034970
    32  H   -0.000001   0.000036  -0.000089  -0.029072   0.381298  -0.002659
    33  H    0.000010   0.004434  -0.000250  -0.035844   0.384268  -0.004830
    34  H    0.000001  -0.000429   0.003683  -0.036889   0.383653   0.004843
              31         32         33         34
     1  C   -0.000002  -0.000000  -0.000000  -0.000000
     2  C    0.000029   0.000001   0.000002  -0.000000
     3  C    0.000088   0.000001   0.000039  -0.000002
     4  C    0.000008   0.000023   0.000047  -0.000000
     5  C   -0.000001   0.000002  -0.000001   0.000000
     6  C   -0.000000   0.000000  -0.000000  -0.000000
     7  H   -0.000000  -0.000000   0.000000   0.000000
     8  H    0.000000   0.000001   0.000021  -0.000000
     9  H   -0.000000  -0.000000  -0.000000   0.000000
    10  H    0.000000   0.000000  -0.000000  -0.000000
    11  S    0.000246  -0.000017   0.001319  -0.000003
    12  N    0.000005   0.000000   0.000001  -0.000000
    13  C   -0.000093  -0.000001  -0.000012  -0.000000
    14  S   -0.000002  -0.000000  -0.000002   0.000000
    15  O   -0.000000   0.000000  -0.000000   0.000000
    16  O   -0.000000   0.000000  -0.000000   0.000000
    17  C   -0.000002  -0.000000   0.000000   0.000000
    18  C   -0.000103   0.000001  -0.000003   0.000003
    19  H   -0.000001   0.000000  -0.000000  -0.000000
    20  H   -0.000000   0.000000   0.000000   0.000000
    21  C   -0.002832  -0.000125   0.000013   0.000099
    22  H    0.000006   0.000000  -0.000001   0.000000
    23  H    0.000005  -0.000000   0.000000  -0.000000
    24  C   -0.039803   0.004286  -0.005079  -0.004396
    25  H    0.003440  -0.000001   0.000010   0.000001
    26  H    0.004994   0.000036   0.004434  -0.000429
    27  H   -0.006029  -0.000089  -0.000250   0.003683
    28  C    0.385814  -0.029072  -0.035844  -0.036889
    29  C   -0.036511   0.381298   0.384268   0.383653
    30  H   -0.034970  -0.002659  -0.004830   0.004843
    31  H    0.573517  -0.002947   0.004679  -0.003743
    32  H   -0.002947   0.539180  -0.027142  -0.027965
    33  H    0.004679  -0.027142   0.546660  -0.029689
    34  H   -0.003743  -0.027965  -0.029689   0.554296
          Atomic-Atomic Spin Densities.
               1          2          3          4          5          6
     1  C    0.082088   0.009752   0.002087   0.000211  -0.004024  -0.007171
     2  C    0.009752  -0.067010   0.005905   0.000447  -0.000633   0.001154
     3  C    0.002087   0.005905   0.101208   0.008235  -0.005028  -0.000709
     4  C    0.000211   0.000447   0.008235  -0.046125  -0.005338   0.000475
     5  C   -0.004024  -0.000633  -0.005028  -0.005338   0.098119   0.007180
     6  C   -0.007171   0.001154  -0.000709   0.000475   0.007180  -0.038135
     7  H   -0.000121   0.000211  -0.000040   0.000003   0.000005   0.000166
     8  H    0.000001  -0.000024  -0.000230   0.000459  -0.000113  -0.000018
     9  H    0.000012  -0.000007   0.000009   0.000191  -0.000294   0.000195
    10  H   -0.000234  -0.000019  -0.000003  -0.000007  -0.000214   0.000476
    11  S   -0.000391  -0.000298  -0.026879   0.000213   0.000330   0.000013
    12  N   -0.005742  -0.022568  -0.006521  -0.000183   0.000092   0.000089
    13  C    0.000198   0.005362   0.003298  -0.000140  -0.000002  -0.000003
    14  S    0.000001   0.000148   0.000072  -0.000003   0.000000  -0.000000
    15  O   -0.000001  -0.000019  -0.000026  -0.000000   0.000000   0.000000
    16  O   -0.000000   0.000003  -0.000012  -0.000000   0.000000  -0.000000
    17  C   -0.000000  -0.000001  -0.000002  -0.000000   0.000000   0.000000
    18  C   -0.000001  -0.000036  -0.000006   0.000000   0.000000   0.000000
    19  H   -0.000000  -0.000007   0.000000   0.000000  -0.000000   0.000000
    20  H    0.000000   0.000000  -0.000000   0.000000  -0.000000  -0.000000
    21  C    0.000196   0.002285   0.000836  -0.000009  -0.000003  -0.000005
    22  H   -0.000000  -0.000001  -0.000000   0.000000   0.000000   0.000000
    23  H    0.000000   0.000003   0.000000  -0.000000  -0.000000  -0.000000
    24  C   -0.000009  -0.000072  -0.000120  -0.000001   0.000000   0.000000
    25  H   -0.000100  -0.000489  -0.000118   0.000001   0.000001   0.000002
    26  H   -0.000002  -0.000047  -0.000149  -0.000001   0.000000   0.000000
    27  H    0.000000   0.000008   0.000013   0.000000  -0.000000  -0.000000
    28  C   -0.000046  -0.000199  -0.000847  -0.000010   0.000024   0.000006
    29  C    0.000001   0.000001   0.000055   0.000002  -0.000003  -0.000000
    30  H    0.000266   0.000540   0.002200  -0.000002  -0.000141  -0.000038
    31  H   -0.000008  -0.000019  -0.000034   0.000000   0.000002   0.000001
    32  H   -0.000000  -0.000000  -0.000001  -0.000001   0.000000   0.000000
    33  H    0.000000  -0.000000  -0.000005   0.000002   0.000000   0.000000
    34  H    0.000000   0.000000   0.000000  -0.000000  -0.000000  -0.000000
               7          8          9         10         11         12
     1  C   -0.000121   0.000001   0.000012  -0.000234  -0.000391  -0.005742
     2  C    0.000211  -0.000024  -0.000007  -0.000019  -0.000298  -0.022568
     3  C   -0.000040  -0.000230   0.000009  -0.000003  -0.026879  -0.006521
     4  C    0.000003   0.000459   0.000191  -0.000007   0.000213  -0.000183
     5  C    0.000005  -0.000113  -0.000294  -0.000214   0.000330   0.000092
     6  C    0.000166  -0.000018   0.000195   0.000476   0.000013   0.000089
     7  H   -0.003898  -0.000000   0.000001  -0.000015  -0.000002  -0.000090
     8  H   -0.000000   0.001310  -0.000002  -0.000001   0.000027   0.000000
     9  H    0.000001  -0.000002  -0.004676  -0.000007   0.000001   0.000000
    10  H   -0.000015  -0.000001  -0.000007   0.001172  -0.000000  -0.000000
    11  S   -0.000002   0.000027   0.000001  -0.000000   0.062050   0.007569
    12  N   -0.000090   0.000000   0.000000  -0.000000   0.007569   0.344998
    13  C    0.000001  -0.000000  -0.000000  -0.000000   0.011150  -0.014158
    14  S   -0.000000  -0.000000  -0.000000  -0.000000  -0.000993  -0.002362
    15  O    0.000000  -0.000000   0.000000  -0.000000   0.000290   0.001136
    16  O   -0.000000  -0.000000   0.000000  -0.000000   0.000219   0.000029
    17  C    0.000000  -0.000000  -0.000000  -0.000000   0.000120   0.000397
    18  C    0.000000   0.000000  -0.000000   0.000000   0.000499   0.000991
    19  H   -0.000000  -0.000000  -0.000000   0.000000  -0.000008  -0.000049
    20  H    0.000000   0.000000   0.000000   0.000000   0.000001  -0.000004
    21  C    0.000000  -0.000000   0.000000  -0.000000  -0.016388  -0.033377
    22  H   -0.000000   0.000000  -0.000000   0.000000   0.000046   0.000015
    23  H    0.000000  -0.000000   0.000000  -0.000000  -0.000046  -0.000107
    24  C   -0.000000   0.000000   0.000000   0.000000   0.002492   0.000877
    25  H   -0.000001   0.000000  -0.000000   0.000000   0.000458   0.005304
    26  H   -0.000000   0.000000  -0.000000   0.000000   0.005107   0.000213
    27  H    0.000000  -0.000000   0.000000  -0.000000  -0.000490  -0.000052
    28  C   -0.000000   0.000001  -0.000000   0.000000   0.001814   0.000374
    29  C    0.000000  -0.000000   0.000000  -0.000000  -0.000118  -0.000002
    30  H    0.000000  -0.000004   0.000000  -0.000000  -0.001800  -0.001048
    31  H   -0.000000   0.000000  -0.000000   0.000000   0.000060   0.000040
    32  H   -0.000000   0.000000  -0.000000   0.000000   0.000004   0.000000
    33  H    0.000000  -0.000000  -0.000000  -0.000000  -0.000051  -0.000000
    34  H    0.000000   0.000000  -0.000000  -0.000000  -0.000006  -0.000000
              13         14         15         16         17         18
     1  C    0.000198   0.000001  -0.000001  -0.000000  -0.000000  -0.000001
     2  C    0.005362   0.000148  -0.000019   0.000003  -0.000001  -0.000036
     3  C    0.003298   0.000072  -0.000026  -0.000012  -0.000002  -0.000006
     4  C   -0.000140  -0.000003  -0.000000  -0.000000  -0.000000   0.000000
     5  C   -0.000002   0.000000   0.000000   0.000000   0.000000   0.000000
     6  C   -0.000003  -0.000000   0.000000  -0.000000   0.000000   0.000000
     7  H    0.000001  -0.000000   0.000000  -0.000000   0.000000   0.000000
     8  H   -0.000000  -0.000000  -0.000000  -0.000000  -0.000000   0.000000
     9  H   -0.000000  -0.000000   0.000000   0.000000  -0.000000  -0.000000
    10  H   -0.000000  -0.000000  -0.000000  -0.000000  -0.000000   0.000000
    11  S    0.011150  -0.000993   0.000290   0.000219   0.000120   0.000499
    12  N   -0.014158  -0.002362   0.001136   0.000029   0.000397   0.000991
    13  C   -0.195925   0.010379   0.000567  -0.000237   0.001520   0.001159
    14  S    0.010379   0.022985  -0.002920  -0.001938  -0.002844   0.001034
    15  O    0.000567  -0.002920   0.008281   0.000045   0.000151  -0.000046
    16  O   -0.000237  -0.001938   0.000045   0.006361   0.000058  -0.000010
    17  C    0.001520  -0.002844   0.000151   0.000058   0.030917   0.006604
    18  C    0.001159   0.001034  -0.000046  -0.000010   0.006604  -0.035661
    19  H    0.000249  -0.000144   0.000048  -0.000003   0.000415   0.000479
    20  H   -0.000093   0.000470  -0.000075  -0.000051  -0.000877   0.000208
    21  C    0.011352  -0.001610   0.000211   0.000709  -0.013815  -0.033019
    22  H    0.000139  -0.000256   0.000001   0.000045   0.001707   0.002466
    23  H   -0.000046   0.000353   0.000001  -0.000009  -0.010584   0.006615
    24  C   -0.000579  -0.000276  -0.000001  -0.000022   0.000494   0.002829
    25  H    0.002018  -0.000076  -0.000003  -0.000006   0.001287   0.005775
    26  H   -0.000038  -0.000224  -0.000001  -0.000058   0.000225   0.001807
    27  H    0.000014   0.000066   0.000000   0.000001  -0.000234  -0.002121
    28  C   -0.000239  -0.000011  -0.000000  -0.000001   0.000006   0.000095
    29  C    0.000002  -0.000000   0.000000   0.000000   0.000000   0.000004
    30  H    0.000093   0.000013   0.000000   0.000001  -0.000007  -0.000087
    31  H    0.000004  -0.000001  -0.000000  -0.000000   0.000002   0.000029
    32  H   -0.000000  -0.000000  -0.000000  -0.000000   0.000000   0.000000
    33  H    0.000002   0.000000   0.000000  -0.000000  -0.000000  -0.000000
    34  H   -0.000000   0.000000   0.000000   0.000000  -0.000000  -0.000000
              19         20         21         22         23         24
     1  C   -0.000000   0.000000   0.000196  -0.000000   0.000000  -0.000009
     2  C   -0.000007   0.000000   0.002285  -0.000001   0.000003  -0.000072
     3  C    0.000000  -0.000000   0.000836  -0.000000   0.000000  -0.000120
     4  C    0.000000   0.000000  -0.000009   0.000000  -0.000000  -0.000001
     5  C   -0.000000  -0.000000  -0.000003   0.000000  -0.000000   0.000000
     6  C    0.000000  -0.000000  -0.000005   0.000000  -0.000000   0.000000
     7  H   -0.000000   0.000000   0.000000  -0.000000   0.000000  -0.000000
     8  H   -0.000000   0.000000  -0.000000   0.000000  -0.000000   0.000000
     9  H   -0.000000   0.000000   0.000000  -0.000000   0.000000   0.000000
    10  H    0.000000   0.000000  -0.000000   0.000000  -0.000000   0.000000
    11  S   -0.000008   0.000001  -0.016388   0.000046  -0.000046   0.002492
    12  N   -0.000049  -0.000004  -0.033377   0.000015  -0.000107   0.000877
    13  C    0.000249  -0.000093   0.011352   0.000139  -0.000046  -0.000579
    14  S   -0.000144   0.000470  -0.001610  -0.000256   0.000353  -0.000276
    15  O    0.000048  -0.000075   0.000211   0.000001   0.000001  -0.000001
    16  O   -0.000003  -0.000051   0.000709   0.000045  -0.000009  -0.000022
    17  C    0.000415  -0.000877  -0.013815   0.001707  -0.010584   0.000494
    18  C    0.000479   0.000208  -0.033019   0.002466   0.006615   0.002829
    19  H   -0.000756  -0.000005  -0.000933   0.000017  -0.000474   0.000016
    20  H   -0.000005  -0.001421   0.000342  -0.000033   0.000531  -0.000004
    21  C   -0.000933   0.000342   0.915626  -0.002801  -0.013335  -0.033822
    22  H    0.000017  -0.000033  -0.002801   0.001136  -0.002685   0.000585
    23  H   -0.000474   0.000531  -0.013335  -0.002685   0.053237  -0.000729
    24  C    0.000016  -0.000004  -0.033822   0.000585  -0.000729  -0.044363
    25  H    0.000075  -0.000014  -0.021012   0.000020  -0.002323   0.004847
    26  H    0.000004  -0.000003  -0.016209   0.000465  -0.000356   0.006729
[...]
 .00000328,0.00001800,0.00001738,-0.00016587,0.00004992,-0.00008286,-0.
 00000062,-0.00000336,0.00000201,-0.00000957,0.00001255,-0.00000243,0.0
 0040422,0.00029454,0.00001170,0.00005733,0.00000363,-0.00002179,0.0000
 6010,0.00001102,0.00000977,0.00662675,-0.00700381,-0.00447074,-0.00004
 734,-0.00001451,0.00009663,-0.00075428,0.00030303,-0.00036339,-0.00150
 986,0.00125688,0.00051860,0.03054660,-0.14934360,-0.05880998,0.0168983
 8,0.53996087,-0.00011033,-0.00002533,-0.00008226,0.00010480,-0.0000679
 1,-0.00009729,0.00034364,0.00014466,0.00001340,-0.00029728,0.00005753,
 0.00009194,0.00008297,0.00005494,0.00009766,0.00007395,-0.00005265,-0.
 00010845,-0.00000331,0.00000247,0.00000115,0.00005913,0.00002368,-0.00
 001553,0.00000274,-0.00000500,0.00000801,0.00000857,-0.00000113,-0.000
 00473,0.00006085,0.00029912,-0.00017718,0.00006128,0.00005592,-0.00013
 434,-0.00037580,-0.00058903,0.00044427,0.00007532,-0.00008414,0.000211
 84,-0.00002846,0.00010443,-0.00006247,-0.00001402,-0.00002979,-0.00016
 995,-0.00021231,-0.00005947,0.00003889,-0.00027524,0.00071672,0.000437
 00,0.00000613,0.00001586,-0.00001288,-0.00002046,0.00010384,-0.0000272
 5,-0.00257126,-0.00009973,-0.00053689,0.00009903,-0.00003693,-0.000003
 38,-0.00005389,0.00002119,0.00002366,0.00114681,0.00386242,0.00373933,
 0.00010845,0.00020225,0.00020194,-0.00144546,0.00098573,0.00107110,-0.
 00049124,0.00017737,-0.00018445,0.02775915,-0.05993533,-0.13339716,0.0
 2068330,-0.04033576,0.54864878,0.00021256,0.00003255,0.00011665,0.0002
 1504,0.00010092,-0.00002294,0.00103047,-0.00046057,0.00069315,0.000058
 26,0.00009289,0.00006090,-0.00016899,0.00005942,-0.00022388,-0.0001406
 9,0.00001515,0.00002410,-0.00000900,0.00000837,-0.00001436,-0.00001000
 ,-0.00000997,0.00005753,-0.00001783,-0.00001527,0.00000354,-0.00001279
 ,0.00000236,0.00000352,-0.00028518,-0.00026904,-0.00085359,0.00007170,
 0.00034276,0.00015306,-0.00091670,-0.00024382,0.00042431,-0.00047687,-
 0.00004770,-0.00007886,0.00012642,0.00001727,-0.00001821,0.00016168,0.
 00012682,0.00003205,0.00013262,0.00003066,0.00010564,0.00001743,0.0002
 5176,-0.00013704,-0.00002572,0.00005188,-0.00000280,0.00000452,0.00001
 313,-0.00003010,0.00133319,-0.00147930,-0.00096485,0.00023610,-0.00004
 666,0.00010099,0.00015170,-0.00004321,-0.00007721,-0.01976115,-0.02636
 076,0.00591839,0.00003935,0.00035420,0.00064970,0.00086158,-0.00016256
 ,-0.00009004,-0.00620402,0.00193484,-0.00148048,-0.12604497,-0.1194696
 1,0.01838094,0.00729915,0.01146926,-0.00191828,0.13938779,-0.00000219,
 0.00007605,-0.00000550,-0.00023500,-0.00049639,0.00018935,0.00004696,-
 0.00201433,0.00108720,-0.00000977,-0.00014889,0.00002507,0.00012933,0.
 00009577,0.00006859,0.00006913,0.00001307,-0.00001200,0.00000307,0.000
 01355,0.00000317,0.00003990,0.00006528,-0.00006554,0.00001046,0.000022
 33,-0.00000729,0.00000589,0.00000586,-0.00000605,0.00048132,-0.0020675
 0,0.00133433,0.00005843,0.00018667,-0.00017020,-0.00047024,0.00011679,
 0.00032712,0.00006923,0.00003587,0.00005677,-0.00003010,0.00004510,-0.
 00002048,0.00001959,-0.00002230,-0.00003924,-0.00006491,-0.00002373,-0
 .00001856,0.00000350,0.00020288,0.00019035,-0.00000056,-0.00001090,-0.
 00000106,-0.00000378,0.00002244,-0.00000402,0.00029252,0.00085294,-0.0
 0027144,0.00004312,-0.00005702,-0.00005689,-0.00001065,0.00000444,0.00
 000948,0.00475344,0.00718183,-0.00166829,-0.00034003,0.00015068,0.0000
 9726,-0.00072113,-0.00011404,0.00002256,0.00223771,0.00047223,0.000204
 30,-0.12045419,-0.23257769,0.02964495,-0.01195604,-0.02056227,0.002527
 46,0.12810944,0.25682492,-0.00023051,0.00001637,-0.00018434,0.00011131
 ,-0.00006604,0.00006383,0.00047531,0.00107673,0.00023016,-0.00020108,-
 0.00009953,-0.00008421,0.00014889,0.00004259,0.00027821,0.00003355,-0.
 00005753,-0.00020579,-0.00000145,-0.00004127,-0.00000751,0.00005244,0.
 00003133,-0.00008096,-0.00001425,0.00000102,-0.00000914,0.00000182,-0.
 00000911,-0.00001213,-0.00065850,0.00113054,-0.00147790,0.00009386,-0.
 00007376,-0.00041190,-0.00027706,-0.00014746,0.00082509,-0.00015148,0.
 00005721,-0.00003215,0.00002757,-0.00001639,-0.00000902,0.00006128,-0.
 00001033,-0.00001697,0.00004495,-0.00002435,0.00004204,-0.00008915,0.0
 0000342,-0.00026616,0.00000255,0.00000125,-0.00000214,0.00000106,0.000
 01367,-0.00001984,0.00060510,0.00037962,0.00055360,-0.00004573,-0.0000
 0660,0.00002200,0.00003052,-0.00000106,0.00000132,-0.00254975,-0.00484
 127,0.00031552,0.00014577,0.00004596,-0.00028337,0.00022462,-0.0005285
 9,0.00009970,-0.00112789,-0.00018327,0.00052494,0.01869179,0.03073770,
 -0.05507666,-0.01210509,-0.01951196,0.00247544,-0.02178317,-0.03211875
 ,0.05765016,-0.00000282,-0.00000444,-0.00001615,0.00005318,0.00002278,
 0.00009816,0.00003011,0.00007324,0.00008016,0.00005618,-0.00001665,0.0
 0002726,0.00002545,0.00000647,0.00001965,-0.00000680,0.00001235,-0.000
 02843,0.00000258,-0.00001025,-0.00000282,0.00001520,0.00002226,-0.0000
 2630,-0.00000422,-0.00000308,0.00000251,-0.00000343,-0.00001117,-0.000
 00324,-0.00007361,-0.00038169,0.00009093,0.00002950,0.00002612,-0.0000
 7917,0.00000894,0.00001412,0.00014024,-0.00021784,-0.00033951,-0.00030
 294,0.00006573,0.00006620,0.00005318,0.00000901,0.00028221,0.00013406,
 0.00006912,0.00000512,0.00007150,-0.00011121,-0.00011561,0.00021102,-0
 .00001056,0.00001708,0.00000581,0.00000200,-0.00000495,-0.00001850,0.0
 0089920,-0.00164568,-0.00134787,0.00018632,0.00000899,0.00002368,-0.00
 006935,0.00008580,0.00007050,-0.00743856,0.01107769,-0.03306098,0.0003
 6215,0.00037043,0.00063578,-0.00635639,0.00175007,-0.00060204,0.001599
 39,-0.00046726,0.00006717,-0.05204607,0.00766052,-0.02927285,0.0008598
 1,-0.00392775,0.01198466,0.00229403,-0.00448942,0.01762721,0.05961056,
 -0.00000682,0.00002489,-0.00001682,0.00001386,0.00005723,0.00010051,0.
 00034649,0.00004276,0.00030843,0.00003303,-0.00007704,-0.00004683,0.00
 003123,0.00003743,0.00006594,-0.00002761,0.00000407,-0.00006505,-0.000
 00442,-0.00003528,-0.00001394,0.00000772,0.00001161,-0.00001583,-0.000
 01391,-0.00000604,-0.00000600,-0.00000909,-0.00001475,-0.00000201,0.00
 003826,-0.00036199,-0.00032516,0.00001397,0.00008638,-0.00019815,-0.00
 032722,-0.00000562,0.00048877,-0.00012017,0.00010974,0.00009718,0.0000
 2390,-0.00002569,-0.00003199,0.00007513,-0.00006447,-0.00004854,0.0000
 2630,-0.00001368,0.00000034,0.00000290,-0.00005964,-0.00034544,0.00000
 894,-0.00001582,0.00000250,0.00000190,0.00000833,-0.00000908,-0.000014
 40,0.00058401,0.00123275,-0.00013344,0.00001837,-0.00001895,0.00007274
 ,-0.00001664,0.00000147,0.00026415,-0.00245853,0.00538439,0.00003835,-
 0.00043473,-0.00041870,0.00110174,0.00029464,-0.00037587,-0.00006978,0
 .00050644,-0.00070637,0.00819322,-0.07309979,0.07410404,-0.00276535,0.
 00746957,-0.02542141,0.00417036,-0.00773686,0.02658620,-0.01188240,0.0
 7661354,0.00000128,-0.00002058,0.00001081,-0.00004872,0.00002425,-0.00
 005229,-0.00021543,-0.00002078,-0.00011360,0.00003040,0.00002265,0.000
 00338,-0.00000832,-0.00002033,-0.00003560,0.00001565,-0.00000827,0.000
 03283,-0.00000038,0.00002492,0.00000780,-0.00001601,-0.00002010,0.0000
 1841,0.00000722,0.00000451,-0.00000233,0.00001024,0.00001520,0.0000042
 9,0.00000833,0.00010105,0.00011619,0.00002352,0.00001325,0.00014832,0.
 00022962,0.00002285,-0.00020412,0.00007090,-0.00012691,-0.00006077,-0.
 00002019,0.00004164,0.00002468,-0.00002797,0.00005679,0.00005800,-0.00
 005830,0.00001938,0.00003453,-0.00000945,0.00016152,0.00024043,-0.0000
 0165,0.00001040,-0.00000470,-0.00000601,0.00001478,-0.00000128,0.00006
 915,-0.00055131,0.00049187,0.00011725,-0.00002510,-0.00003692,-0.00007
 482,0.00000738,0.00001073,-0.00056353,0.00143829,-0.00459547,-0.000328
 77,0.00058578,0.00012704,-0.00088798,-0.00025006,0.00096943,-0.0002988
 1,-0.00032874,0.00044054,-0.03016990,0.07323226,-0.28506455,-0.0016448
 9,0.00568493,-0.01918160,-0.00013653,0.00141997,-0.00388219,0.03258975
 ,-0.07804629,0.31037565,-0.00003978,-0.00002362,-0.00003234,-0.0000582
 9,0.00000620,0.00001962,-0.00003180,0.00000860,-0.00003956,-0.00004596
 ,0.00001614,0.00005313,0.00006332,0.00000541,0.00004074,0.00005049,-0.
 00002326,-0.00003968,-0.00000338,0.00000185,0.00000090,0.00000207,0.00
 002129,-0.00002979,0.00001552,0.00001195,-0.00000106,0.00001011,0.0000
 0759,0.00000130,0.00002454,-0.00000798,-0.00002192,0.00011087,0.000125
 68,0.00008010,-0.00014141,-0.00023767,0.00007747,0.00008255,-0.0001505
 3,0.00005318,-0.00003298,0.00011971,-0.00001912,-0.00003394,0.00005076
 ,-0.00004198,-0.00009830,-0.00001978,0.00001527,0.00004184,0.00023660,
 0.00007797,0.00000910,0.00000183,-0.00000667,-0.00000725,0.00003827,-0
 .00000964,-0.00062118,-0.00025379,-0.00039859,0.00002523,-0.00001598,-
 0.00000488,-0.00001167,0.00000692,0.00000898,0.00104216,0.00219987,0.0
 0194158,-0.00000663,0.00007866,0.00002963,0.00018206,-0.00017931,0.000
 03583,0.00028430,-0.00005859,-0.00005334,-0.00831017,0.00073196,-0.002
 16881,-0.30315728,0.05530845,-0.04964451,0.00044990,0.00022666,0.00001
 647,0.00016614,-0.00022498,0.00034521,0.32654977,0.00004175,0.00002545
 ,0.00002838,0.00006389,-0.00001911,-0.00003966,0.00009202,0.00001887,0
 .00005034,0.00001797,0.00004936,-0.00006644,-0.00009546,0.00000965,-0.
 00005201,-0.00006154,0.00001750,0.00002785,0.00000122,-0.00000149,0.00
 000094,-0.00000855,-0.00003996,0.00006479,-0.00001885,-0.00002126,0.00
 000288,-0.00000679,-0.00000605,0.00000355,-0.00001209,0.00002333,0.000
 03489,-0.00009926,-0.00009522,-0.00005688,0.00009686,0.00019957,-0.000
 07343,0.00003608,0.00010898,-0.00007497,-0.00000387,-0.00007639,0.0000
 2463,0.00000164,-0.00003414,0.00004831,0.00015720,0.00002757,-0.000028
 67,0.00001548,-0.00050751,-0.00015917,-0.00000443,-0.00000411,0.000003
 66,0.00000795,-0.00006544,0.00001532,0.00164318,0.00047255,0.00026031,
 -0.00004204,0.00000402,0.00000762,0.00000472,-0.00000132,-0.00002434,0
 .00008990,-0.00359047,-0.00365336,-0.00003424,-0.00002390,-0.00002163,
 -0.00040199,-0.00007434,-0.00014231,0.00034396,0.00012016,-0.00023160,
 0.02360369,-0.00483592,0.00640313,0.05478282,-0.06104560,0.01134411,-0
 .00026780,0.00042553,0.00085718,-0.00056101,0.00095030,0.00017434,-0.0
 6184117,0.06351560,0.00002628,0.00000968,0.00000187,-0.00000434,0.0000
 0342,0.00001858,-0.00015249,-0.00001238,-0.00005244,0.00005051,-0.0000
 0115,0.00004024,-0.00002208,-0.00001980,-0.00003714,-0.00002448,0.0000
 2167,0.00002858,0.00000515,-0.00000503,0.00000054,-0.00000478,0.000022
 32,-0.00002409,0.00000444,0.00000407,0.00000519,-0.00000429,-0.0000065
 4,-0.00000215,-0.00002427,0.00000419,0.00008203,-0.00002067,-0.0000604
 9,0.00000315,0.00017576,0.00018507,-0.00014222,-0.00003427,0.00002455,
 -0.00010448,0.00001377,-0.00004206,0.00002792,0.00000942,0.00002377,0.
 00007370,0.00012753,0.00001588,-0.00001907,0.00002409,-0.00034532,-0.0
 0018533,-0.00000395,-0.00000450,0.00000546,0.00000841,-0.00005016,0.00
 000911,0.00140941,-0.00016650,0.00067257,-0.00002769,0.00000312,-0.000
 00211,0.00002785,-0.00001048,-0.00001359,0.00017289,-0.00351140,-0.002
 88231,-0.00006163,0.00003693,-0.00000157,0.00016533,-0.00019283,0.0002
 6520,-0.00025199,0.00002322,-0.00009832,0.02246072,-0.00344413,0.00427
 186,-0.05026314,0.01158290,-0.05880580,-0.00062226,0.00053293,0.000628
 78,-0.00003381,0.00091790,0.00058259,0.05346737,-0.00986490,0.06032616
 ,0.00001088,0.00001249,0.00001845,0.00001041,-0.00001756,-0.00005095,0
 .00011236,-0.00001076,0.00004946,0.00000274,0.00000501,-0.00009838,-0.
 00004920,0.00001041,0.00000340,-0.00001562,-0.00000085,0.00001759,-0.0
 0000202,0.00000140,-0.00000003,-0.00002444,-0.00003814,0.00005239,-0.0
 0000615,-0.00000475,-0.00000625,-0.00000147,0.00000435,0.00000588,-0.0
 0000533,-0.00006267,0.00001110,-0.00005005,-0.00001937,0.00001111,-0.0
 0002746,0.00004347,-0.00002735,0.00009818,0.00010507,0.00007475,-0.000
 02636,-0.00003254,-0.00001042,-0.00001619,-0.00008685,-0.00004829,0.00
 000464,-0.00000243,-0.00001832,-0.00000873,-0.00006813,0.00000044,0.00
 000207,-0.00000221,-0.00000238,0.00000029,-0.00000943,0.00000827,0.000
 01166,0.00028171,-0.00008913,-0.00003001,0.00000899,0.00000692,-0.0000
 0965,-0.00000638,-0.00000630,0.00093271,-0.00097811,0.00135196,-0.0000
 1995,-0.00007870,-0.00011962,-0.00022894,0.00032617,-0.00031272,0.0000
 0191,-0.00000123,0.00000879,-0.00017261,-0.00381837,0.01065189,-0.0520
 3565,0.00616221,-0.02105128,0.00015692,-0.00014071,-0.00073202,-0.0001
 7796,0.00177497,0.00148436,-0.00080904,0.00995906,-0.03128751,0.051113
 62,0.00004325,0.00000527,0.00002003,-0.00008052,0.00000276,0.00000175,
 -0.00023946,-0.00005478,-0.00011073,0.00009486,0.00004513,0.00000232,-
 0.00004187,-0.00002258,-0.00006348,-0.00002485,0.00001922,0.00005039,0
 .00000220,0.00000682,0.00000487,-0.00003148,-0.00001250,0.00003274,0.0
 0000586,0.00000016,0.00000257,0.00000287,0.00000255,0.00000500,-0.0000
 5569,0.00013428,0.00021460,0.00001925,-0.00001380,0.00017479,0.0002103
 3,0.00013685,-0.00038620,0.00015912,-0.00004203,0.00006650,-0.00003464
 ,0.00001697,-0.00000563,-0.00006686,-0.00001438,-0.00002581,-0.0000530
 5,0.00001030,-0.00001994,0.00002407,0.00006385,0.00009910,0.00000414,-
 0.00000162,-0.00000400,-0.00000441,0.00000011,0.00000837,-0.00021350,-
 0.00020644,-0.00003645,0.00001767,-0.00000475,-0.00000474,-0.00002019,
 -0.00000215,-0.00000400,-0.00124176,0.00091972,-0.00020336,0.00004146,
 0.00004290,0.00011301,0.00019653,0.00013266,0.00052431,0.00009422,-0.0
 0006892,0.00008591,-0.00176838,0.00784997,-0.02558564,0.00609729,-0.07
 425280,0.07970096,-0.00065401,0.00113099,0.00053144,0.00231833,-0.0033
 5381,-0.00363621,-0.00032112,-0.00306599,0.00551921,-0.00845806,0.0785
 6365,0.00005569,0.00000181,0.00004119,-0.00008837,0.00002401,0.0000226
 6,-0.00023474,-0.00011050,-0.00007937,0.00014289,-0.00001545,-0.000046
 13,-0.00005141,-0.00002952,-0.00007303,-0.00003073,0.00001777,0.000065
 05,-0.00000007,0.00001447,0.00000409,-0.00003763,-0.00004664,0.0000358
 0,0.00000010,-0.00000029,-0.00000395,0.00000310,0.00000911,0.00000558,
 -0.00000382,-0.00020435,0.00025928,-0.00001635,-0.00002957,0.00013941,
 0.00026801,0.00026639,-0.00031644,0.00004441,-0.00005076,-0.00007265,-
 0.00000753,-0.00000671,0.00002879,-0.00002970,0.00003438,0.00007038,-0
 .00000755,0.00001798,-0.00000736,0.00004668,-0.00002670,0.00006253,-0.
 00000059,-0.00000209,0.00000090,-0.00000023,-0.00001375,0.00000606,0.0
 0005412,-0.00024005,0.00037961,0.00001873,-0.00000717,-0.00001584,-0.0
 0003092,-0.00000337,0.00000112,-0.00111045,0.00079918,0.00063910,-0.00
 008412,0.00020153,0.00011463,0.00102818,-0.00036356,0.00030208,-0.0000
 1782,-0.00009632,-0.00003012,-0.00173791,0.00584174,-0.02070223,-0.020
 73880,0.07936264,-0.29166869,-0.00029388,0.00012916,0.00070656,0.00161
 863,-0.00377685,-0.00112994,-0.00025021,0.00134752,-0.00435255,0.02168
 523,-0.08370045,0.31777148,-0.00001498,0.00000542,-0.00000756,-0.00000
 042,-0.00001179,0.00001238,-0.00002913,0.00000351,-0.00004285,-0.00002
 591,-0.00002024,0.00001685,0.00002126,-0.00001249,0.00001449,0.0000120
 2,-0.00000171,0.00000895,0.00000264,-0.00000139,-0.00000136,0.00000493
 ,0.00002755,-0.00003301,0.00000686,0.00001221,-0.00000155,-0.00000208,
 0.00000077,-0.00000412,0.00001626,-0.00001845,0.00003393,-0.00001125,-
 0.00008011,-0.00005206,0.00005522,0.00008381,0.00000511,-0.00007357,0.
 00007401,-0.00002189,0.00002187,-0.00004813,0.00000670,0.00002934,-0.0
 0002335,0.00001538,0.00003150,-0.00000167,-0.00000969,-0.00001900,-0.0
 0008566,-0.00004489,-0.00000327,-0.00000360,0.00000430,0.00000455,-0.0
 0001067,0.00000223,0.00011892,0.00006856,0.00007979,-0.00003137,0.0000
 1008,-0.00000010,0.00000484,-0.00000087,-0.00000151,0.00138303,0.00068
 090,-0.00030320,-0.00002169,-0.00005975,-0.00005281,0.00001183,-0.0000
 6415,-0.00018201,0.00010661,-0.00046191,0.00024198,0.00623330,0.010756
 06,-0.00220288,-0.12750224,-0.12096512,0.01585236,-0.00016651,0.002329
 02,0.00157105,0.00017421,-0.00063957,-0.00048523,-0.01570094,-0.027500
 29,0.00469473,0.00125843,0.00397842,-0.00019293,0.13410473,0.00000249,
 -0.00000836,0.00002404,0.00000597,0.00003458,0.00005706,0.00008107,-0.
 00002265,0.00006746,0.00002534,-0.00004137,0.00000341,0.00005276,0.000
 00865,0.00002405,0.00002154,-0.00000631,-0.00002381,-0.00000239,0.0000
 0464,-0.00000452,0.00001243,0.00001709,-0.00001740,-0.00000754,0.00000
 108,-0.00000059,-0.00000358,-0.00000170,-0.00000498,-0.00004007,-0.000
 01186,-0.00021625,0.00005884,0.00007503,0.00001480,-0.00019984,-0.0001
 1689,0.00018104,-0.00022839,0.00002863,-0.00008300,0.00005960,-0.00002
 492,0.00000893,0.00008764,0.00003832,0.00004566,0.00005503,0.00000008,
 0.00001452,0.00002422,-0.00000819,0.00002350,-0.00001073,0.00000631,0.
 00000536,0.00000352,-0.00000354,-0.00001079,0.00022271,0.00031048,-0.0
 0022521,0.00003801,-0.00002581,0.00000259,0.00002884,-0.00000313,-0.00
 002143,-0.00123707,0.00086847,0.00058110,-0.00008673,0.00011302,0.0001
 4949,0.00010889,-0.00020342,0.00008783,0.00107095,-0.00001375,-0.00021
 418,-0.01275863,-0.02083115,0.00295285,-0.12104813,-0.23735732,0.02634
 296,0.00234622,-0.00211329,-0.00377497,0.00004112,0.00096103,-0.000021
 48,0.00415338,0.00753981,-0.00119316,-0.00485808,-0.00796761,0.0006564
 2,0.13198059,0.25875404,0.00004705,0.00000197,0.00003893,-0.00006035,0
 .00004073,0.00003481,-0.00007537,-0.00009344,0.00001894,0.00012040,-0.
 00001751,-0.00005120,-0.00002878,-0.00001179,-0.00003702,-0.00001979,0
 .00001479,0.00003351,-0.00000114,0.00000401,0.00000015,-0.00002762,-0.
 00002801,0.00002583,-0.00000428,-0.00000271,-0.00000248,-0.00000187,0.
 00000142,0.00000364,-0.00005279,-0.00011237,0.00006509,-0.00000115,0.0
 0004207,0.00009682,0.00006408,0.00011998,-0.00013704,0.00000350,0.0000
 0410,0.00002561,0.00000240,-0.00000894,-0.00000326,-0.00001254,-0.0000
 0862,-0.00000395,-0.00001475,0.00000925,-0.00001376,0.00003800,0.00003
 680,0.00007775,-0.00000131,-0.00000221,0.00000045,-0.00000120,-0.00000
 050,0.00000318,-0.00015899,0.00011806,-0.00022260,0.00001676,-0.000002
 28,-0.00000655,0.00000161,-0.00000279,-0.00000832,-0.00092469,0.000479
 01,0.00055190,-0.00001104,-0.00000115,0.00006917,0.00020326,0.00015835
 ,-0.00006107,0.00041532,0.00031077,0.00011685,-0.01263550,-0.01959547,
 0.00256424,0.01585783,0.02636529,-0.05283412,0.00202402,-0.00340473,-0
 .00235497,-0.00075676,0.00059886,0.00066784,-0.00350265,-0.00621040,-0
 .00032038,0.01841895,0.02662875,-0.00215802,-0.01892061,-0.02543129,0.
 05382004\\0.00000150,-0.00000083,-0.00000101,0.00000108,-0.00000064,-0
 .00000094,0.00000063,-0.00000252,-0.00000004,0.00000089,-0.00000258,-0
 .00000023,0.00000098,-0.00000280,-0.00000065,0.00000128,-0.00000196,-0
 .00000087,0.00000162,-0.00000018,-0.00000104,0.00000062,-0.00000327,-0
 .00000027,0.00000114,-0.00000366,-0.00000048,0.00000169,-0.00000211,-0
 .00000088,0.00000010,-0.00000165,0.00000053,0.00000044,-0.00000019,-0.
 00000157,0.00000214,0.00000252,0.00000060,0.00000051,-0.00000005,-0.00
 000177,0.00000192,0.00000151,-0.00000183,0.00000076,0.00000116,-0.0000
 0061,0.00000107,0.00000314,-0.00000030,-0.00000003,0.00000351,0.000001
 83,0.00000134,0.00000297,-0.00000112,0.00000066,0.00000337,-0.00000028
 ,-0.00000093,-0.00000052,-0.00000058,-0.00000015,0.00000317,-0.0000004
 7,-0.00000172,0.00000206,-0.00000043,-0.00000128,0.00000054,0.00000084
 ,-0.00000025,0.00000232,0.00000002,-0.00000123,0.00000082,0.00000052,-
 0.00000172,0.00000108,0.00000121,-0.00000156,-0.00000035,0.00000094,-0
 .00000227,-0.00000131,0.00000185,-0.00000063,-0.00000036,0.00000021,-0
 .00000157,0.00000054,0.00000140,-0.00000228,-0.00000166,0.00000185,-0.
 00000185,-0.00000143,0.00000137,-0.00000290,-0.00000065,0.00000220\\\@
 The archive entry for this job was punched.


 What some people mistake for the high cost
 of living is really the cost of living high.
                              -- Doug Larson
 Job cpu time:       0 days  2 hours 49 minutes 49.2 seconds.
 Elapsed time:       0 days  0 hours  1 minutes 54.4 seconds.
 File lengths (MBytes):  RWF=    766 Int=      0 D2E=      0 Chk=     13 Scr=      1
 Normal termination of Gaussian 16 at Thu Nov 20 14:02:24 2025.
