 Entering Gaussian System, Link 0=g16
 Initial command:
 /public/software/g16/l1.exe "/tmp/Gau-94194.inp" -scrdir="/tmp/"
 Entering Link 1 = /public/software/g16/l1.exe PID=     94195.
  
 Copyright (c) 1988-2021, Gaussian, Inc.  All Rights Reserved.
  
 This is part of the Gaussian(R) 16 program.  It is based on
 the Gaussian(R) 09 system (copyright 2009, Gaussian, Inc.),
 the Gaussian(R) 03 system (copyright 2003, Gaussian, Inc.),
 the Gaussian(R) 98 system (copyright 1998, Gaussian, Inc.),
 the Gaussian(R) 94 system (copyright 1995, Gaussian, Inc.),
 the Gaussian 92(TM) system (copyright 1992, Gaussian, Inc.),
 the Gaussian 90(TM) system (copyright 1990, Gaussian, Inc.),
 the Gaussian 88(TM) system (copyright 1988, Gaussian, Inc.),
 the Gaussian 86(TM) system (copyright 1986, Carnegie Mellon
 University), and the Gaussian 82(TM) system (copyright 1983,
 Carnegie Mellon University). Gaussian is a federally registered
 trademark of Gaussian, Inc.
  
 This software contains proprietary and confidential information,
 including trade secrets, belonging to Gaussian, Inc.
  
 This software is provided under written license and may be
 used, copied, transmitted, or stored only in accord with that
 written license.
  
 The following legend is applicable only to US Government
 contracts under FAR:
  
                    RESTRICTED RIGHTS LEGEND
  
 Use, reproduction and disclosure by the US Government is
 subject to restrictions as set forth in subparagraphs (a)
 and (c) of the Commercial Computer Software - Restricted
 Rights clause in FAR 52.227-19.
  
 Gaussian, Inc.
 340 Quinnipiac St., Bldg. 40, Wallingford CT 06492
  
  
 ---------------------------------------------------------------
 Warning -- This program may not be used in any manner that
 competes with the business of Gaussian, Inc. or will provide
 assistance to any competitor of Gaussian, Inc.  The licensee
 of this program is prohibited from giving any competitor of
 Gaussian, Inc. access to this program.  By using this program,
 the user acknowledges that Gaussian, Inc. is engaged in the
 business of creating and licensing software in the field of
 computational chemistry and represents and warrants to the
 licensee that it is not a competitor of Gaussian, Inc. and that
 it will not use this program in any manner prohibited above.
 ---------------------------------------------------------------
  

 Cite this work as:
 Gaussian 16, Revision C.02,
 M. J. Frisch, G. W. Trucks, H. B. Schlegel, G. E. Scuseria, 
 M. A. Robb, J. R. Cheeseman, G. Scalmani, V. Barone, 
 G. A. Petersson, H. Nakatsuji, X. Li, M. Caricato, A. V. Marenich, 
 J. Bloino, B. G. Janesko, R. Gomperts, B. Mennucci, H. P. Hratchian, 
 J. V. Ortiz, A. F. Izmaylov, J. L. Sonnenberg, D. Williams-Young, 
 F. Ding, F. Lipparini, F. Egidi, J. Goings, B. Peng, A. Petrone, 
 T. Henderson, D. Ranasinghe, V. G. Zakrzewski, J. Gao, N. Rega, 
 G. Zheng, W. Liang, M. Hada, M. Ehara, K. Toyota, R. Fukuda, 
 J. Hasegawa, M. Ishida, T. Nakajima, Y. Honda, O. Kitao, H. Nakai, 
 T. Vreven, K. Throssell, J. A. Montgomery, Jr., J. E. Peralta, 
 F. Ogliaro, M. J. Bearpark, J. J. Heyd, E. N. Brothers, K. N. Kudin, 
 V. N. Staroverov, T. A. Keith, R. Kobayashi, J. Normand, 
 K. Raghavachari, A. P. Rendell, J. C. Burant, S. S. Iyengar, 
 J. Tomasi, M. Cossi, J. M. Millam, M. Klene, C. Adamo, R. Cammi, 
 J. W. Ochterski, R. L. Martin, K. Morokuma, O. Farkas, 
 J. B. Foresman, and D. J. Fox, Gaussian, Inc., Wallingford CT, 2019.
 
 ******************************************
 Gaussian 16:  ES64L-G16RevC.02  7-Dec-2021
                20-Nov-2025 
 ******************************************
 %nprocshared=96
 Will use up to   96 processors via shared memory.
 %mem=10GB
 %chk=TS2.chk
 ---------------------------------------------
 # opt=(calcfc,ts,noeigen) freq 6-31g(d) m062x
 ---------------------------------------------
 1/5=1,10=4,11=1,18=20,26=3,38=1/1,3;
 2/9=110,12=2,17=6,18=5,40=1/2;
 3/5=1,6=6,7=1,11=2,25=1,30=1,71=2,74=-55,140=1/1,2,3;
 4//1;
 5/5=2,38=5/2;
 8/6=4,10=90,11=11/1;
 11/6=1,8=1,9=11,15=111,16=1/1,2,10;
 10/6=1,13=1/2;
 6/7=2,8=2,9=2,10=2,28=1/1;
 7/10=1,25=1/1,2,3,16;
 1/5=1,10=4,11=1,18=20,26=3/3(2);
 2/9=110/2;
 99//99;
 2/9=110/2;
 3/5=1,6=6,7=1,11=2,25=1,30=1,71=1,74=-55/1,2,3;
 4/5=5,16=3,69=1/1;
 5/5=2,38=5/2;
 7//1,2,3,16;
 1/5=1,11=1,18=20,26=3/3(-5);
 2/9=110/2;
 6/7=2,8=2,9=2,10=2,19=2,28=1/1;
 99/9=1/99;
 -------------------
 Title Card Required
 -------------------
 Symbolic Z-matrix:
 Charge =  0 Multiplicity = 2
 C                    -2.81098   0.01546  -1.51344 
 C                    -1.65355   0.09118  -0.70156 
 C                    -1.80319   0.18513   0.7163 
 C                    -3.06439   0.19135   1.31385 
 C                    -4.18207   0.113     0.48933 
 C                    -4.05504   0.02617  -0.91381 
 H                    -2.69177  -0.05522  -2.59469 
 H                    -3.17139   0.25902   2.39648 
 H                    -5.17628   0.11838   0.93767 
 H                    -4.95364  -0.03671  -1.52828 
 S                    -0.24502   0.30404   1.47152 
 N                    -0.38555   0.09662  -1.16224 
 C                     0.5138    0.03376  -0.15458 
 S                     1.00621  -2.10116  -0.09693 
 O                     0.41504  -2.79618  -1.23974 
 O                     0.80926  -2.63281   1.25471 
 C                     2.77169  -1.76811  -0.3295 
 C                     2.96961  -0.37351   0.24127 
 H                     2.95346  -1.81536  -1.41041 
 H                     3.30803  -2.56726   0.19626 
 C                     1.92688   0.56675  -0.37941 
 H                     2.86579  -0.39448   1.33854 
 H                     3.98126  -0.01253   0.01291 
 C                     2.09085   2.0161    0.083 
 H                     2.04978   0.53381  -1.4747 
 H                     2.01498   2.05863   1.18341 
 H                     3.11729   2.32966  -0.16905 
 C                     1.0938    2.98698  -0.54197 
 C                     1.35805   4.43028  -0.12938 
 H                     0.06989   2.70134  -0.24857 
 H                     1.13766   2.89246  -1.63957 
 H                     0.63042   5.11697  -0.58308 
 H                     1.29279   4.54287   0.96325 
 H                     2.36422   4.75073  -0.43833 
 

 GradGradGradGradGradGradGradGradGradGradGradGradGradGradGradGradGradGrad
 Berny optimization.
 Initialization pass.
                           ----------------------------
                           !    Initial Parameters    !
                           ! (Angstroms and Degrees)  !
 --------------------------                            --------------------------
 ! Name  Definition              Value          Derivative Info.                !
 --------------------------------------------------------------------------------
 ! R1    R(1,2)                  1.4158         calculate D2E/DX2 analytically  !
 ! R2    R(1,6)                  1.3811         calculate D2E/DX2 analytically  !
 ! R3    R(1,7)                  1.0901         calculate D2E/DX2 analytically  !
 ! R4    R(2,3)                  1.4288         calculate D2E/DX2 analytically  !
 ! R5    R(2,12)                 1.3491         calculate D2E/DX2 analytically  !
 ! R6    R(3,4)                  1.3956         calculate D2E/DX2 analytically  !
 ! R7    R(3,11)                 1.7356         calculate D2E/DX2 analytically  !
 ! R8    R(4,5)                  1.3911         calculate D2E/DX2 analytically  !
 ! R9    R(4,8)                  1.09           calculate D2E/DX2 analytically  !
 ! R10   R(5,6)                  1.4116         calculate D2E/DX2 analytically  !
 ! R11   R(5,9)                  1.0906         calculate D2E/DX2 analytically  !
 ! R12   R(6,10)                 1.0904         calculate D2E/DX2 analytically  !
 ! R13   R(11,13)                1.8147         calculate D2E/DX2 analytically  !
 ! R14   R(12,13)                1.3521         calculate D2E/DX2 analytically  !
 ! R15   R(13,21)                1.5269         calculate D2E/DX2 analytically  !
 ! R16   R(14,15)                1.4624         calculate D2E/DX2 analytically  !
 ! R17   R(14,16)                1.4657         calculate D2E/DX2 analytically  !
 ! R18   R(14,17)                1.8116         calculate D2E/DX2 analytically  !
 ! R19   R(17,18)                1.5198         calculate D2E/DX2 analytically  !
 ! R20   R(17,19)                1.0971         calculate D2E/DX2 analytically  !
 ! R21   R(17,20)                1.0967         calculate D2E/DX2 analytically  !
 ! R22   R(18,21)                1.5351         calculate D2E/DX2 analytically  !
 ! R23   R(18,22)                1.1024         calculate D2E/DX2 analytically  !
 ! R24   R(18,23)                1.0981         calculate D2E/DX2 analytically  !
 ! R25   R(21,24)                1.5301         calculate D2E/DX2 analytically  !
 ! R26   R(21,25)                1.1027         calculate D2E/DX2 analytically  !
 ! R27   R(24,26)                1.1038         calculate D2E/DX2 analytically  !
 ! R28   R(24,27)                1.1025         calculate D2E/DX2 analytically  !
 ! R29   R(24,28)                1.5256         calculate D2E/DX2 analytically  !
 ! R30   R(28,29)                1.5242         calculate D2E/DX2 analytically  !
 ! R31   R(28,30)                1.1028         calculate D2E/DX2 analytically  !
 ! R32   R(28,31)                1.1025         calculate D2E/DX2 analytically  !
 ! R33   R(29,32)                1.0986         calculate D2E/DX2 analytically  !
 ! R34   R(29,33)                1.1004         calculate D2E/DX2 analytically  !
 ! R35   R(29,34)                1.1002         calculate D2E/DX2 analytically  !
 ! A1    A(2,1,6)              119.1443         calculate D2E/DX2 analytically  !
 ! A2    A(2,1,7)              118.8722         calculate D2E/DX2 analytically  !
 ! A3    A(6,1,7)              121.9826         calculate D2E/DX2 analytically  !
 ! A4    A(1,2,3)              119.1397         calculate D2E/DX2 analytically  !
 ! A5    A(1,2,12)             124.9424         calculate D2E/DX2 analytically  !
 ! A6    A(3,2,12)             115.914          calculate D2E/DX2 analytically  !
 ! A7    A(2,3,4)              121.3197         calculate D2E/DX2 analytically  !
 ! A8    A(2,3,11)             110.0152         calculate D2E/DX2 analytically  !
 ! A9    A(4,3,11)             128.6591         calculate D2E/DX2 analytically  !
 ! A10   A(3,4,5)              118.167          calculate D2E/DX2 analytically  !
 ! A11   A(3,4,8)              120.948          calculate D2E/DX2 analytically  !
 ! A12   A(5,4,8)              120.8847         calculate D2E/DX2 analytically  !
 ! A13   A(4,5,6)              121.3549         calculate D2E/DX2 analytically  !
 ! A14   A(4,5,9)              119.2413         calculate D2E/DX2 analytically  !
 ! A15   A(6,5,9)              119.4037         calculate D2E/DX2 analytically  !
 ! A16   A(1,6,5)              120.8721         calculate D2E/DX2 analytically  !
 ! A17   A(1,6,10)             119.8166         calculate D2E/DX2 analytically  !
 ! A18   A(5,6,10)             119.3109         calculate D2E/DX2 analytically  !
 ! A19   A(3,11,13)             88.5841         calculate D2E/DX2 analytically  !
 ! A20   A(2,12,13)            111.7459         calculate D2E/DX2 analytically  !
 ! A21   A(11,13,12)           112.5043         calculate D2E/DX2 analytically  !
 ! A22   A(11,13,21)           117.8359         calculate D2E/DX2 analytically  !
 ! A23   A(12,13,21)           119.3149         calculate D2E/DX2 analytically  !
 ! A24   A(15,14,16)           119.5993         calculate D2E/DX2 analytically  !
 ! A25   A(15,14,17)           112.396          calculate D2E/DX2 analytically  !
 ! A26   A(16,14,17)           108.4225         calculate D2E/DX2 analytically  !
 ! A27   A(14,17,18)           104.3232         calculate D2E/DX2 analytically  !
 ! A28   A(14,17,19)           106.2617         calculate D2E/DX2 analytically  !
 ! A29   A(14,17,20)           106.3251         calculate D2E/DX2 analytically  !
 ! A30   A(18,17,19)           112.8276         calculate D2E/DX2 analytically  !
 ! A31   A(18,17,20)           115.1459         calculate D2E/DX2 analytically  !
 ! A32   A(19,17,20)           111.0951         calculate D2E/DX2 analytically  !
 ! A33   A(17,18,21)           108.7678         calculate D2E/DX2 analytically  !
 ! A34   A(17,18,22)           110.1266         calculate D2E/DX2 analytically  !
 ! A35   A(17,18,23)           110.091          calculate D2E/DX2 analytically  !
 ! A36   A(21,18,22)           110.4948         calculate D2E/DX2 analytically  !
 ! A37   A(21,18,23)           109.8971         calculate D2E/DX2 analytically  !
 ! A38   A(22,18,23)           107.4582         calculate D2E/DX2 analytically  !
 ! A39   A(13,21,18)           110.8107         calculate D2E/DX2 analytically  !
 ! A40   A(13,21,24)           112.6629         calculate D2E/DX2 analytically  !
 ! A41   A(13,21,25)           103.8266         calculate D2E/DX2 analytically  !
 ! A42   A(18,21,24)           112.6554         calculate D2E/DX2 analytically  !
 ! A43   A(18,21,25)           107.9154         calculate D2E/DX2 analytically  !
 ! A44   A(24,21,25)           108.4532         calculate D2E/DX2 analytically  !
 ! A45   A(21,24,26)           109.2925         calculate D2E/DX2 analytically  !
 ! A46   A(21,24,27)           107.463          calculate D2E/DX2 analytically  !
 ! A47   A(21,24,28)           114.1405         calculate D2E/DX2 analytically  !
 ! A48   A(26,24,27)           106.317          calculate D2E/DX2 analytically  !
 ! A49   A(26,24,28)           109.8124         calculate D2E/DX2 analytically  !
 ! A50   A(27,24,28)           109.5013         calculate D2E/DX2 analytically  !
 ! A51   A(24,28,29)           112.2367         calculate D2E/DX2 analytically  !
 ! A52   A(24,28,30)           109.4509         calculate D2E/DX2 analytically  !
 ! A53   A(24,28,31)           109.1034         calculate D2E/DX2 analytically  !
 ! A54   A(29,28,30)           109.5255         calculate D2E/DX2 analytically  !
 ! A55   A(29,28,31)           110.1069         calculate D2E/DX2 analytically  !
 ! A56   A(30,28,31)           106.236          calculate D2E/DX2 analytically  !
 ! A57   A(28,29,32)           111.4249         calculate D2E/DX2 analytically  !
 ! A58   A(28,29,33)           110.8183         calculate D2E/DX2 analytically  !
 ! A59   A(28,29,34)           110.9978         calculate D2E/DX2 analytically  !
 ! A60   A(32,29,33)           107.8698         calculate D2E/DX2 analytically  !
 ! A61   A(32,29,34)           107.9197         calculate D2E/DX2 analytically  !
 ! A62   A(33,29,34)           107.6544         calculate D2E/DX2 analytically  !
 ! D1    D(6,1,2,3)             -0.3883         calculate D2E/DX2 analytically  !
 ! D2    D(6,1,2,12)          -179.6414         calculate D2E/DX2 analytically  !
 ! D3    D(7,1,2,3)            179.9481         calculate D2E/DX2 analytically  !
 ! D4    D(7,1,2,12)             0.6949         calculate D2E/DX2 analytically  !
 ! D5    D(2,1,6,5)              0.0844         calculate D2E/DX2 analytically  !
 ! D6    D(2,1,6,10)          -179.6928         calculate D2E/DX2 analytically  !
 ! D7    D(7,1,6,5)            179.7372         calculate D2E/DX2 analytically  !
 ! D8    D(7,1,6,10)            -0.04           calculate D2E/DX2 analytically  !
 ! D9    D(1,2,3,4)              0.5867         calculate D2E/DX2 analytically  !
 ! D10   D(1,2,3,11)          -178.5985         calculate D2E/DX2 analytically  !
 ! D11   D(12,2,3,4)           179.906          calculate D2E/DX2 analytically  !
 ! D12   D(12,2,3,11)            0.7209         calculate D2E/DX2 analytically  !
 ! D13   D(1,2,12,13)         -173.4599         calculate D2E/DX2 analytically  !
 ! D14   D(3,2,12,13)            7.2653         calculate D2E/DX2 analytically  !
 ! D15   D(2,3,4,5)             -0.4581         calculate D2E/DX2 analytically  !
 ! D16   D(2,3,4,8)            179.7397         calculate D2E/DX2 analytically  !
 ! D17   D(11,3,4,5)           178.5614         calculate D2E/DX2 analytically  !
 ! D18   D(11,3,4,8)            -1.2408         calculate D2E/DX2 analytically  !
 ! D19   D(2,3,11,13)           -5.9037         calculate D2E/DX2 analytically  !
 ! D20   D(4,3,11,13)          174.9877         calculate D2E/DX2 analytically  !
 ! D21   D(3,4,5,6)              0.1432         calculate D2E/DX2 analytically  !
 ! D22   D(3,4,5,9)           -179.887          calculate D2E/DX2 analytically  !
 ! D23   D(8,4,5,6)            179.9456         calculate D2E/DX2 analytically  !
 ! D24   D(8,4,5,9)             -0.0846         calculate D2E/DX2 analytically  !
 ! D25   D(4,5,6,1)              0.0424         calculate D2E/DX2 analytically  !
 ! D26   D(4,5,6,10)           179.8207         calculate D2E/DX2 analytically  !
 ! D27   D(9,5,6,1)           -179.9273         calculate D2E/DX2 analytically  !
 ! D28   D(9,5,6,10)            -0.149          calculate D2E/DX2 analytically  !
 ! D29   D(3,11,13,12)          10.2651         calculate D2E/DX2 analytically  !
 ! D30   D(3,11,13,21)         155.1583         calculate D2E/DX2 analytically  !
 ! D31   D(2,12,13,11)         -11.7211         calculate D2E/DX2 analytically  !
 ! D32   D(2,12,13,21)        -156.0419         calculate D2E/DX2 analytically  !
 ! D33   D(11,13,21,18)         79.3375         calculate D2E/DX2 analytically  !
 ! D34   D(11,13,21,24)        -47.9094         calculate D2E/DX2 analytically  !
 ! D35   D(11,13,21,25)       -165.0397         calculate D2E/DX2 analytically  !
 ! D36   D(12,13,21,18)       -138.2043         calculate D2E/DX2 analytically  !
 ! D37   D(12,13,21,24)         94.5488         calculate D2E/DX2 analytically  !
 ! D38   D(12,13,21,25)        -22.5815         calculate D2E/DX2 analytically  !
 ! D39   D(15,14,17,18)        140.1725         calculate D2E/DX2 analytically  !
 ! D40   D(15,14,17,19)         20.7286         calculate D2E/DX2 analytically  !
 ! D41   D(15,14,17,20)        -97.7026         calculate D2E/DX2 analytically  !
 ! D42   D(16,14,17,18)        -85.3726         calculate D2E/DX2 analytically  !
 ! D43   D(16,14,17,19)        155.1835         calculate D2E/DX2 analytically  !
 ! D44   D(16,14,17,20)         36.7522         calculate D2E/DX2 analytically  !
 ! D45   D(14,17,18,21)        -51.0244         calculate D2E/DX2 analytically  !
 ! D46   D(14,17,18,22)         70.1981         calculate D2E/DX2 analytically  !
 ! D47   D(14,17,18,23)       -171.4901         calculate D2E/DX2 analytically  !
 ! D48   D(19,17,18,21)         63.8761         calculate D2E/DX2 analytically  !
 ! D49   D(19,17,18,22)       -174.9014         calculate D2E/DX2 analytically  !
 ! D50   D(19,17,18,23)        -56.5896         calculate D2E/DX2 analytically  !
 ! D51   D(20,17,18,21)       -167.1493         calculate D2E/DX2 analytically  !
 ! D52   D(20,17,18,22)        -45.9269         calculate D2E/DX2 analytically  !
 ! D53   D(20,17,18,23)         72.385          calculate D2E/DX2 analytically  !
 ! D54   D(17,18,21,13)         55.6157         calculate D2E/DX2 analytically  !
 ! D55   D(17,18,21,24)       -177.1332         calculate D2E/DX2 analytically  !
 ! D56   D(17,18,21,25)        -57.4363         calculate D2E/DX2 analytically  !
 ! D57   D(22,18,21,13)        -65.3809         calculate D2E/DX2 analytically  !
 ! D58   D(22,18,21,24)         61.8701         calculate D2E/DX2 analytically  !
 ! D59   D(22,18,21,25)       -178.4329         calculate D2E/DX2 analytically  !
 ! D60   D(23,18,21,13)        176.2011         calculate D2E/DX2 analytically  !
 ! D61   D(23,18,21,24)        -56.5479         calculate D2E/DX2 analytically  !
 ! D62   D(23,18,21,25)         63.1491         calculate D2E/DX2 analytically  !
 ! D63   D(13,21,24,26)         68.1428         calculate D2E/DX2 analytically  !
 ! D64   D(13,21,24,27)       -176.8855         calculate D2E/DX2 analytically  !
 ! D65   D(13,21,24,28)        -55.252          calculate D2E/DX2 analytically  !
 ! D66   D(18,21,24,26)        -58.1195         calculate D2E/DX2 analytically  !
 ! D67   D(18,21,24,27)         56.8522         calculate D2E/DX2 analytically  !
 ! D68   D(18,21,24,28)        178.4858         calculate D2E/DX2 analytically  !
 ! D69   D(25,21,24,26)       -177.5047         calculate D2E/DX2 analytically  !
 ! D70   D(25,21,24,27)        -62.533          calculate D2E/DX2 analytically  !
 ! D71   D(25,21,24,28)         59.1005         calculate D2E/DX2 analytically  !
 ! D72   D(21,24,28,29)       -175.9245         calculate D2E/DX2 analytically  !
 ! D73   D(21,24,28,30)         62.251          calculate D2E/DX2 analytically  !
 ! D74   D(21,24,28,31)        -53.6051         calculate D2E/DX2 analytically  !
 ! D75   D(26,24,28,29)         60.9623         calculate D2E/DX2 analytically  !
 ! D76   D(26,24,28,30)        -60.8622         calculate D2E/DX2 analytically  !
 ! D77   D(26,24,28,31)       -176.7183         calculate D2E/DX2 analytically  !
 ! D78   D(27,24,28,29)        -55.4219         calculate D2E/DX2 analytically  !
 ! D79   D(27,24,28,30)       -177.2464         calculate D2E/DX2 analytically  !
 ! D80   D(27,24,28,31)         66.8975         calculate D2E/DX2 analytically  !
 ! D81   D(24,28,29,32)       -179.7549         calculate D2E/DX2 analytically  !
 ! D82   D(24,28,29,33)        -59.6318         calculate D2E/DX2 analytically  !
 ! D83   D(24,28,29,34)         59.9375         calculate D2E/DX2 analytically  !
 ! D84   D(30,28,29,32)        -57.973          calculate D2E/DX2 analytically  !
 ! D85   D(30,28,29,33)         62.1501         calculate D2E/DX2 analytically  !
 ! D86   D(30,28,29,34)       -178.2806         calculate D2E/DX2 analytically  !
 ! D87   D(31,28,29,32)         58.497          calculate D2E/DX2 analytically  !
 ! D88   D(31,28,29,33)        178.62           calculate D2E/DX2 analytically  !
 ! D89   D(31,28,29,34)        -61.8106         calculate D2E/DX2 analytically  !
 --------------------------------------------------------------------------------
 Trust Radius=3.00D-01 FncErr=1.00D-07 GrdErr=1.00D-06 EigMax=2.50D+02 EigMin=1.00D-04
 Number of steps in this run=    196 maximum allowed number of steps=    204.
 Search for a saddle point of order  1.
 GradGradGradGradGradGradGradGradGradGradGradGradGradGradGradGradGradGrad

                          Input orientation:                          
 ---------------------------------------------------------------------
 Center     Atomic      Atomic             Coordinates (Angstroms)
 Number     Number       Type             X           Y           Z
 ---------------------------------------------------------------------
      1          6           0       -2.810975    0.015462   -1.513440
      2          6           0       -1.653551    0.091181   -0.701555
      3          6           0       -1.803191    0.185125    0.716303
      4          6           0       -3.064385    0.191347    1.313849
      5          6           0       -4.182066    0.112996    0.489333
      6          6           0       -4.055044    0.026172   -0.913812
      7          1           0       -2.691765   -0.055222   -2.594694
      8          1           0       -3.171395    0.259022    2.396476
      9          1           0       -5.176282    0.118375    0.937669
     10          1           0       -4.953639   -0.036706   -1.528275
     11         16           0       -0.245020    0.304038    1.471519
     12          7           0       -0.385553    0.096615   -1.162239
     13          6           0        0.513797    0.033763   -0.154578
     14         16           0        1.006214   -2.101156   -0.096926
     15          8           0        0.415040   -2.796176   -1.239743
     16          8           0        0.809263   -2.632814    1.254705
     17          6           0        2.771693   -1.768106   -0.329503
     18          6           0        2.969613   -0.373514    0.241269
     19          1           0        2.953458   -1.815363   -1.410413
     20          1           0        3.308030   -2.567257    0.196256
     21          6           0        1.926883    0.566748   -0.379407
     22          1           0        2.865789   -0.394483    1.338538
     23          1           0        3.981263   -0.012531    0.012909
     24          6           0        2.090854    2.016098    0.082998
     25          1           0        2.049783    0.533811   -1.474701
     26          1           0        2.014975    2.058633    1.183406
     27          1           0        3.117286    2.329663   -0.169047
     28          6           0        1.093802    2.986981   -0.541969
     29          6           0        1.358049    4.430277   -0.129376
     30          1           0        0.069886    2.701341   -0.248568
     31          1           0        1.137656    2.892456   -1.639567
     32          1           0        0.630418    5.116974   -0.583083
     33          1           0        1.292785    4.542868    0.963254
     34          1           0        2.364218    4.750729   -0.438330
 ---------------------------------------------------------------------
                    Distance matrix (angstroms):
                    1          2          3          4          5
     1  C    0.000000
     2  C    1.415811   0.000000
     3  C    2.452788   1.428824   0.000000
     4  C    2.844067   2.462182   1.395604   0.000000
     5  C    2.429095   2.795010   2.390766   1.391106   0.000000
     6  C    1.381078   2.411731   2.784490   2.443596   1.411555
     7  H    1.090100   2.164093   3.436573   3.933999   3.429361
     8  H    3.934040   3.453957   2.168046   1.090006   2.163325
     9  H    3.407815   3.885541   3.381006   2.146380   1.090642
    10  H    2.143350   3.404468   3.874618   3.420374   2.165289
    11  S    3.946819   2.598368   1.735623   2.826018   4.062206
    12  N    2.452060   1.349103   2.355091   3.649127   4.140226
    13  C    3.591789   2.236041   2.479875   3.870981   4.740467
    14  S    4.588847   3.499467   3.712301   4.880126   5.671368
    15  O    4.288052   3.592429   4.199383   5.249050   5.708447
    16  O    5.270874   4.160836   3.880151   4.794219   5.747924
    17  C    5.979047   4.814370   5.083147   6.371803   7.250090
    18  C    6.053553   4.741150   4.828809   6.154562   7.172499
    19  H    6.049068   5.036062   5.581271   6.903834   7.631730
    20  H    6.858259   5.700056   5.828433   7.033248   7.960602
    21  C    4.902779   3.626217   3.906363   5.284013   6.187072
    22  H    6.366120   4.982197   4.745787   5.959091   7.116948
    23  H    6.961682   5.680875   5.830415   7.167647   8.178183
    24  C    5.529836   4.282686   4.349382   5.605462   6.567833
    25  H    4.888472   3.808984   4.446064   5.835067   6.547553
    26  H    5.893837   4.569686   4.278622   5.413286   6.532270
    27  H    6.504398   5.296721   5.440035   6.707043   7.656867
    28  C    5.002096   3.994881   4.222110   5.343234   6.095749
    29  C    6.227920   5.312709   5.360030   6.293596   7.050857
    30  H    4.136811   3.160438   3.281880   4.308697   5.032209
    31  H    4.887196   4.064215   4.639865   5.803086   6.368442
    32  H    6.223679   5.521698   5.651017   6.442959   7.024947
    33  H    6.593350   5.591959   5.351259   6.167948   7.058496
    34  H    7.096565   6.158177   6.288499   7.302590   8.076073
                    6          7          8          9         10
     6  C    0.000000
     7  H    2.165761   0.000000
     8  H    3.434103   5.024000   0.000000
     9  H    2.166485   4.322100   2.483439   0.000000
    10  H    1.090409   2.500733   4.320592   2.480826   0.000000
    11  S    4.503698   4.759172   3.069404   4.963548   5.593386
    12  N    3.678565   2.719117   4.522360   5.230791   4.584666
    13  C    4.631501   4.029604   4.487678   5.794580   5.637807
    14  S    5.550600   4.909149   5.407394   6.649809   6.467655
    15  O    5.296558   4.359009   5.951373   6.670728   6.043231
    16  O    5.952659   5.806811   5.050940   6.595173   6.906214
    17  C    7.082739   6.157470   6.845473   8.266489   8.007219
    18  C    7.130201   6.339968   6.538884   8.190393   8.125432
    19  H    7.263399   6.030685   7.503952   8.680179   8.105535
    20  H    7.884985   7.077942   7.403497   8.930054   8.810952
    21  C    6.030030   5.160063   5.813145   7.238141   7.001831
    22  H    7.290265   6.817024   6.163919   8.068372   8.336071
    23  H    8.089656   7.164546   7.544246   9.205050   9.066880
    24  C    6.536474   5.859509   6.010887   7.559304   7.512329
    25  H    6.151521   4.907507   6.505553   7.629425   7.026826
    26  H    6.736049   6.394984   5.622150   7.452460   7.765645
    27  H    7.569879   6.731754   7.100491   8.654356   8.519802
    28  C    5.951073   5.272494   5.853898   7.052105   6.832790
    29  C    7.022326   6.526752   6.655461   7.901175   7.858006
    30  H    4.961263   4.552984   4.844283   5.966670   5.862624
    31  H    5.975486   4.926006   6.464715   7.362302   6.759900
    32  H    6.926702   6.468005   6.850639   7.811302   7.657382
    33  H    7.247289   7.048267   6.350934   7.837450   8.136217
    34  H    7.984638   7.301372   7.671673   8.956072   8.812409
                   11         12         13         14         15
    11  S    0.000000
    12  N    2.645648   0.000000
    13  C    1.814674   1.352095   0.000000
    14  S    3.132182   2.811068   2.191729   0.000000
    15  O    4.171085   3.002532   3.032473   1.462385   0.000000
    16  O    3.127878   3.836533   3.030513   1.465727   2.530686
    17  C    4.078973   3.760164   2.894033   1.811610   2.727504
    18  C    3.508056   3.667151   2.520635   2.637055   3.819494
    19  H    4.798714   3.855677   3.308827   2.366154   2.726662
    20  H    4.742868   4.752292   3.833553   2.366762   3.237883
    21  C    2.865677   2.486204   1.526903   2.836395   3.786173
    22  H    3.191042   4.131136   2.818627   2.903672   4.292066
    23  H    4.482101   4.523491   3.471817   3.636665   4.694227
    24  C    3.211767   3.371590   2.544249   4.261525   5.264597
    25  H    3.741541   2.493919   2.086151   3.151246   3.717042
    26  H    2.875620   3.887686   2.853741   4.467739   5.656908
    27  H    4.254376   4.271161   3.471242   4.908562   5.892601
    28  C    3.611753   3.305668   3.034464   5.108314   5.864513
    29  C    4.707286   4.784097   4.476911   6.540983   7.371825
    30  H    2.967310   2.797645   2.705894   4.895271   5.596807
    31  H    4.276746   3.219431   3.281237   5.228114   5.748266
    32  H    5.305858   5.154767   5.102573   7.244237   7.943270
    33  H    4.537715   5.206122   4.710456   6.734178   7.712665
    34  H    5.498064   5.453995   5.074874   6.993501   7.835645
                   16         17         18         19         20
    16  O    0.000000
    17  C    2.666189   0.000000
    18  C    3.286123   1.519816   0.000000
    19  H    3.516909   1.097104   2.192543   0.000000
    20  H    2.714489   1.096687   2.220149   1.808992   0.000000
    21  C    3.762525   2.483493   1.535128   2.791287   3.472887
    22  H    3.040798   2.162881   1.102369   3.095693   2.494260
    23  H    4.297618   2.159247   1.098131   2.516432   2.648298
    24  C    4.962636   3.867027   2.550983   4.201721   4.743573
    25  H    4.360741   2.670478   2.147994   2.517813   3.740576
    26  H    4.844430   4.183951   2.777462   4.755680   4.903602
    27  H    5.655105   4.115445   2.738126   4.330020   4.914230
    28  C    5.906869   5.046911   3.927474   5.222550   6.024728
    29  C    7.218317   6.360691   5.080445   6.572245   7.271447
    30  H    5.591039   5.223243   4.254773   5.483200   6.200127
    31  H    6.246060   5.109519   4.190486   5.051060   6.155423
    32  H    7.966722   7.214824   6.024687   7.357872   8.174618
    33  H    7.197857   6.609598   5.244409   6.987076   7.429897
    34  H    7.733108   6.532464   5.204443   6.663761   7.405836
                   21         22         23         24         25
    21  C    0.000000
    22  H    2.181019   0.000000
    23  H    2.170243   1.774109   0.000000
    24  C    1.530137   2.826271   2.773787   0.000000
    25  H    1.102660   3.072769   2.498417   2.150648   0.000000
    26  H    2.162375   2.601101   3.086434   1.103841   3.064609
    27  H    2.137564   3.123625   2.503085   1.102457   2.463611
    28  C    2.564757   4.255648   4.200285   1.525552   2.793194
    29  C    3.913176   5.263683   5.161399   2.531870   4.179814
    30  H    2.832321   4.463195   4.767845   2.159585   3.181443
    31  H    2.760399   4.760202   4.388135   2.154952   2.534238
    32  H    4.735701   6.250254   6.155907   3.491700   4.880058
    33  H    4.244331   5.195442   5.374265   2.792191   4.752811
    34  H    4.207188   5.466447   5.050455   2.797270   4.353772
                   26         27         28         29         30
    26  H    0.000000
    27  H    1.765694   0.000000
    28  C    2.165019   2.160006   0.000000
    29  C    2.789201   2.740268   1.524193   0.000000
    30  H    2.499399   3.071012   1.102759   2.159350   0.000000
    31  H    3.071502   2.529447   1.102533   2.166597   1.763955
    32  H    3.793538   3.758330   2.180203   1.098567   2.502275
    33  H    2.596430   3.083697   2.173954   1.100353   2.520955
    34  H    3.162180   2.549742   2.176122   1.100235   3.082201
                   31         32         33         34
    31  H    0.000000
    32  H    2.514345   0.000000
    33  H    3.085871   1.777494   0.000000
    34  H    2.529941   1.777963   1.776404   0.000000
 Stoichiometry    C13H16NO2S2(2)
 Framework group  C1[X(C13H16NO2S2)]
 Deg. of freedom    96
 Full point group                 C1      NOp   1
 Largest Abelian subgroup         C1      NOp   1
 Largest concise Abelian subgroup C1      NOp   1
                         Standard orientation:                         
 ---------------------------------------------------------------------
 Center     Atomic      Atomic             Coordinates (Angstroms)
 Number     Number       Type             X           Y           Z
 ---------------------------------------------------------------------
      1          6           0       -2.810975    0.015462   -1.513440
      2          6           0       -1.653551    0.091181   -0.701555
      3          6           0       -1.803191    0.185125    0.716303
      4          6           0       -3.064385    0.191347    1.313849
      5          6           0       -4.182066    0.112996    0.489333
      6          6           0       -4.055044    0.026172   -0.913812
      7          1           0       -2.691765   -0.055222   -2.594694
      8          1           0       -3.171395    0.259022    2.396476
      9          1           0       -5.176282    0.118375    0.937669
     10          1           0       -4.953639   -0.036706   -1.528275
     11         16           0       -0.245020    0.304038    1.471519
     12          7           0       -0.385553    0.096615   -1.162239
     13          6           0        0.513797    0.033763   -0.154578
     14         16           0        1.006214   -2.101156   -0.096926
     15          8           0        0.415040   -2.796176   -1.239743
     16          8           0        0.809263   -2.632814    1.254705
     17          6           0        2.771693   -1.768106   -0.329503
     18          6           0        2.969613   -0.373514    0.241269
     19          1           0        2.953458   -1.815363   -1.410413
     20          1           0        3.308030   -2.567257    0.196256
     21          6           0        1.926883    0.566748   -0.379407
     22          1           0        2.865789   -0.394483    1.338538
     23          1           0        3.981263   -0.012531    0.012909
     24          6           0        2.090854    2.016098    0.082998
     25          1           0        2.049783    0.533811   -1.474701
     26          1           0        2.014975    2.058633    1.183406
     27          1           0        3.117286    2.329663   -0.169047
     28          6           0        1.093802    2.986981   -0.541969
     29          6           0        1.358049    4.430277   -0.129376
     30          1           0        0.069886    2.701341   -0.248568
     31          1           0        1.137656    2.892456   -1.639567
     32          1           0        0.630418    5.116974   -0.583083
     33          1           0        1.292785    4.542868    0.963254
     34          1           0        2.364218    4.750729   -0.438330
 ---------------------------------------------------------------------
 Rotational constants (GHZ):           0.4336311           0.3463838           0.2371449
 Standard basis: 6-31G(d) (6D, 7F)
 There are   310 symmetry adapted cartesian basis functions of A   symmetry.
 There are   310 symmetry adapted basis functions of A   symmetry.
   310 basis functions,   616 primitive gaussians,   310 cartesian basis functions
    75 alpha electrons       74 beta electrons
       nuclear repulsion energy      1699.8630044711 Hartrees.
 NAtoms=   34 NActive=   34 NUniq=   34 SFac= 1.00D+00 NAtFMM=   60 NAOKFM=F Big=F
 Integral buffers will be    131072 words long.
 Raffenetti 2 integral format.
 Two-electron integral symmetry is turned on.
 One-electron integrals computed using PRISM.
 NBasis=   310 RedAO= T EigKep=  4.59D-04  NBF=   310
 NBsUse=   310 1.00D-06 EigRej= -1.00D+00 NBFU=   310
 ExpMin= 1.17D-01 ExpMax= 2.19D+04 ExpMxC= 3.30D+03 IAcc=3 IRadAn=         5 AccDes= 0.00D+00
 Harris functional with IExCor= 1009 and IRadAn=       5 diagonalized for initial guess.
 HarFok:  IExCor= 1009 AccDes= 0.00D+00 IRadAn=         5 IDoV= 1 UseB2=F ITyADJ=14
 ICtDFT=  3500011 ScaDFX=  1.000000  1.000000  1.000000  1.000000
 FoFCou: FMM=F IPFlag=           0 FMFlag=      100000 FMFlg1=           0
         NFxFlg=           0 DoJE=T BraDBF=F KetDBF=T FulRan=T
         wScrn=  0.000000 ICntrl=       500 IOpCl=  0 I1Cent=   200000004 NGrid=           0
         NMat0=    1 NMatS0=      1 NMatT0=    0 NMatD0=    1 NMtDS0=    0 NMtDT0=    0
 Petite list used in FoFCou.
 Initial guess <Sx>= 0.0000 <Sy>= 0.0000 <Sz>= 0.5000 <S**2>= 0.7500 S= 0.5000
 Requested convergence on RMS density matrix=1.00D-08 within 128 cycles.
 Requested convergence on MAX density matrix=1.00D-06.
 Requested convergence on             energy=1.00D-06.
 No special actions if energy rises.
 Integral accuracy reduced to 1.0D-05 until final iterations.
 Initial convergence to 1.0D-05 achieved.  Increase integral accuracy.
 SCF Done:  E(UM062X) =  -1506.12923835     A.U. after   22 cycles
            NFock= 22  Conv=0.71D-08     -V/T= 2.0057
 <Sx>= 0.0000 <Sy>= 0.0000 <Sz>= 0.5000 <S**2>= 0.7799 S= 0.5148
 <L.S>=  0.00000000000    
 Annihilation of the first spin contaminant:
 S**2 before annihilation     0.7799,   after     0.7506
 DoSCS=F DFT=T ScalE2(SS,OS)=  1.000000  1.000000
 Range of M.O.s used for correlation:     1   310
 NBasis=   310 NAE=    75 NBE=    74 NFC=     0 NFV=     0
 NROrb=    310 NOA=    75 NOB=    74 NVA=   235 NVB=   236
 Symmetrizing basis deriv contribution to polar:
 IMax=3 JMax=2 DiffMx= 0.00D+00
 G2DrvN: will do    35 centers at a time, making    1 passes.
 Calling FoFCou, ICntrl=  3107 FMM=F I1Cent=   0 AccDes= 0.00D+00.
 End of G2Drv F.D. properties file   721 does not exist.
 End of G2Drv F.D. properties file   722 does not exist.
 End of G2Drv F.D. properties file   788 does not exist.
          IDoAtm=1111111111111111111111111111111111
          Differentiating once with respect to nuclear coordinates.
 CalDSu exits because no D1Ps are significant.
          There are   105 degrees of freedom in the 1st order CPHF.  IDoFFX=6 NUNeed=     0.
     99 vectors produced by pass  0 Test12= 3.51D-14 1.00D-09 XBig12= 4.79D-01 1.40D-01.
 AX will form    33 AO Fock derivatives at one time.
     99 vectors produced by pass  1 Test12= 3.51D-14 1.00D-09 XBig12= 8.46D-02 8.10D-02.
     99 vectors produced by pass  2 Test12= 3.51D-14 1.00D-09 XBig12= 3.60D-03 1.16D-02.
     99 vectors produced by pass  3 Test12= 3.51D-14 1.00D-09 XBig12= 5.10D-05 1.01D-03.
     99 vectors produced by pass  4 Test12= 3.51D-14 1.00D-09 XBig12= 6.06D-07 7.82D-05.
     99 vectors produced by pass  5 Test12= 3.51D-14 1.00D-09 XBig12= 5.07D-09 6.50D-06.
     88 vectors produced by pass  6 Test12= 3.51D-14 1.00D-09 XBig12= 2.89D-11 3.93D-07.
     41 vectors produced by pass  7 Test12= 3.51D-14 1.00D-09 XBig12= 1.91D-13 2.89D-08.
      6 vectors produced by pass  8 Test12= 3.51D-14 1.00D-09 XBig12= 1.16D-15 1.81D-09.
 InvSVY:  IOpt=1 It=  1 EMax= 6.11D-16
 Solved reduced A of dimension   729 with   105 vectors.
 End of Minotr F.D. properties file   721 does not exist.
 End of Minotr F.D. properties file   722 does not exist.
 End of Minotr F.D. properties file   788 does not exist.

 **********************************************************************

            Population analysis using the SCF Density.

 **********************************************************************

 Orbital symmetries:
 Alpha Orbitals:
       Occupied  (A) (A) (A) (A) (A) (A) (A) (A) (A) (A) (A) (A)
                 (A) (A) (A) (A) (A) (A) (A) (A) (A) (A) (A) (A)
                 (A) (A) (A) (A) (A) (A) (A) (A) (A) (A) (A) (A)
                 (A) (A) (A) (A) (A) (A) (A) (A) (A) (A) (A) (A)
                 (A) (A) (A) (A) (A) (A) (A) (A) (A) (A) (A) (A)
                 (A) (A) (A) (A) (A) (A) (A) (A) (A) (A) (A) (A)
                 (A) (A) (A)
       Virtual   (A) (A) (A) (A) (A) (A) (A) (A) (A) (A) (A) (A)
                 (A) (A) (A) (A) (A) (A) (A) (A) (A) (A) (A) (A)
                 (A) (A) (A) (A) (A) (A) (A) (A) (A) (A) (A) (A)
                 (A) (A) (A) (A) (A) (A) (A) (A) (A) (A) (A) (A)
                 (A) (A) (A) (A) (A) (A) (A) (A) (A) (A) (A) (A)
                 (A) (A) (A) (A) (A) (A) (A) (A) (A) (A) (A) (A)
                 (A) (A) (A) (A) (A) (A) (A) (A) (A) (A) (A) (A)
                 (A) (A) (A) (A) (A) (A) (A) (A) (A) (A) (A) (A)
                 (A) (A) (A) (A) (A) (A) (A) (A) (A) (A) (A) (A)
                 (A) (A) (A) (A) (A) (A) (A) (A) (A) (A) (A) (A)
                 (A) (A) (A) (A) (A) (A) (A) (A) (A) (A) (A) (A)
                 (A) (A) (A) (A) (A) (A) (A) (A) (A) (A) (A) (A)
                 (A) (A) (A) (A) (A) (A) (A) (A) (A) (A) (A) (A)
                 (A) (A) (A) (A) (A) (A) (A) (A) (A) (A) (A) (A)
                 (A) (A) (A) (A) (A) (A) (A) (A) (A) (A) (A) (A)
                 (A) (A) (A) (A) (A) (A) (A) (A) (A) (A) (A) (A)
                 (A) (A) (A) (A) (A) (A) (A) (A) (A) (A) (A) (A)
                 (A) (A) (A) (A) (A) (A) (A) (A) (A) (A) (A) (A)
                 (A) (A) (A) (A) (A) (A) (A) (A) (A) (A) (A) (A)
                 (A) (A) (A) (A) (A) (A) (A)
 Beta  Orbitals:
       Occupied  (A) (A) (A) (A) (A) (A) (A) (A) (A) (A) (A) (A)
                 (A) (A) (A) (A) (A) (A) (A) (A) (A) (A) (A) (A)
                 (A) (A) (A) (A) (A) (A) (A) (A) (A) (A) (A) (A)
                 (A) (A) (A) (A) (A) (A) (A) (A) (A) (A) (A) (A)
                 (A) (A) (A) (A) (A) (A) (A) (A) (A) (A) (A) (A)
                 (A) (A) (A) (A) (A) (A) (A) (A) (A) (A) (A) (A)
                 (A) (A)
       Virtual   (A) (A) (A) (A) (A) (A) (A) (A) (A) (A) (A) (A)
                 (A) (A) (A) (A) (A) (A) (A) (A) (A) (A) (A) (A)
                 (A) (A) (A) (A) (A) (A) (A) (A) (A) (A) (A) (A)
                 (A) (A) (A) (A) (A) (A) (A) (A) (A) (A) (A) (A)
                 (A) (A) (A) (A) (A) (A) (A) (A) (A) (A) (A) (A)
                 (A) (A) (A) (A) (A) (A) (A) (A) (A) (A) (A) (A)
                 (A) (A) (A) (A) (A) (A) (A) (A) (A) (A) (A) (A)
                 (A) (A) (A) (A) (A) (A) (A) (A) (A) (A) (A) (A)
                 (A) (A) (A) (A) (A) (A) (A) (A) (A) (A) (A) (A)
                 (A) (A) (A) (A) (A) (A) (A) (A) (A) (A) (A) (A)
                 (A) (A) (A) (A) (A) (A) (A) (A) (A) (A) (A) (A)
                 (A) (A) (A) (A) (A) (A) (A) (A) (A) (A) (A) (A)
                 (A) (A) (A) (A) (A) (A) (A) (A) (A) (A) (A) (A)
                 (A) (A) (A) (A) (A) (A) (A) (A) (A) (A) (A) (A)
                 (A) (A) (A) (A) (A) (A) (A) (A) (A) (A) (A) (A)
                 (A) (A) (A) (A) (A) (A) (A) (A) (A) (A) (A) (A)
                 (A) (A) (A) (A) (A) (A) (A) (A) (A) (A) (A) (A)
                 (A) (A) (A) (A) (A) (A) (A) (A) (A) (A) (A) (A)
                 (A) (A) (A) (A) (A) (A) (A) (A) (A) (A) (A) (A)
                 (A) (A) (A) (A) (A) (A) (A) (A)
 The electronic state is 2-A.
 Alpha  occ. eigenvalues --  -90.11246 -89.95152 -19.63815 -19.63784 -14.77311
 Alpha  occ. eigenvalues --  -10.64432 -10.60054 -10.59846 -10.59628 -10.58456
 Alpha  occ. eigenvalues --  -10.58199 -10.57041 -10.56951 -10.56526 -10.56269
 Alpha  occ. eigenvalues --  -10.55945 -10.54717 -10.53876  -8.43166  -8.29696
 Alpha  occ. eigenvalues --   -6.35387  -6.35206  -6.35113  -6.21707  -6.21510
 Alpha  occ. eigenvalues --   -6.21233  -1.21784  -1.11520  -1.08489  -0.97117
 Alpha  occ. eigenvalues --   -0.95234  -0.90414  -0.89816  -0.85530  -0.83847
 Alpha  occ. eigenvalues --   -0.82087  -0.76758  -0.75149  -0.69546  -0.68666
 Alpha  occ. eigenvalues --   -0.67900  -0.67298  -0.64116  -0.59592  -0.58212
 Alpha  occ. eigenvalues --   -0.56870  -0.56043  -0.55122  -0.54760  -0.52582
 Alpha  occ. eigenvalues --   -0.51866  -0.51273  -0.50732  -0.49508  -0.49304
 Alpha  occ. eigenvalues --   -0.47433  -0.47124  -0.46760  -0.45448  -0.44000
 Alpha  occ. eigenvalues --   -0.43741  -0.42165  -0.41550  -0.40573  -0.40194
 Alpha  occ. eigenvalues --   -0.39924  -0.39030  -0.38572  -0.38105  -0.37475
 Alpha  occ. eigenvalues --   -0.36412  -0.34687  -0.32149  -0.29184  -0.23629
 Alpha virt. eigenvalues --    0.01264   0.02152   0.04132   0.06471   0.09209
 Alpha virt. eigenvalues --    0.11053   0.12241   0.13315   0.13532   0.13988
 Alpha virt. eigenvalues --    0.14197   0.15805   0.17152   0.17936   0.18551
 Alpha virt. eigenvalues --    0.18792   0.19868   0.20495   0.20957   0.21313
 Alpha virt. eigenvalues --    0.22002   0.22319   0.22615   0.23122   0.23419
 Alpha virt. eigenvalues --    0.24326   0.24966   0.26278   0.28653   0.29525
 Alpha virt. eigenvalues --    0.30131   0.31405   0.31985   0.32400   0.34803
 Alpha virt. eigenvalues --    0.36226   0.39395   0.40249   0.41519   0.43821
 Alpha virt. eigenvalues --    0.44325   0.45524   0.45903   0.49949   0.51720
 Alpha virt. eigenvalues --    0.52494   0.54127   0.56293   0.56688   0.57362
 Alpha virt. eigenvalues --    0.57792   0.59063   0.59406   0.59807   0.60133
 Alpha virt. eigenvalues --    0.62029   0.62298   0.63430   0.64366   0.64566
 Alpha virt. eigenvalues --    0.65036   0.65562   0.67016   0.68156   0.68817
 Alpha virt. eigenvalues --    0.69897   0.71343   0.71904   0.73045   0.74820
 Alpha virt. eigenvalues --    0.74967   0.76472   0.77466   0.78142   0.80331
 Alpha virt. eigenvalues --    0.80782   0.82670   0.85318   0.85701   0.86716
 Alpha virt. eigenvalues --    0.87481   0.88029   0.88925   0.89762   0.90120
 Alpha virt. eigenvalues --    0.90519   0.91298   0.91914   0.92771   0.93439
 Alpha virt. eigenvalues --    0.94177   0.95619   0.95715   0.96088   0.97457
 Alpha virt. eigenvalues --    0.97544   0.97742   0.98315   0.99310   1.00255
 Alpha virt. eigenvalues --    1.00847   1.01575   1.02750   1.03259   1.05085
 Alpha virt. eigenvalues --    1.06196   1.06876   1.07999   1.09147   1.10184
 Alpha virt. eigenvalues --    1.11567   1.12445   1.12967   1.14652   1.16835
 Alpha virt. eigenvalues --    1.18115   1.18514   1.20698   1.22384   1.25919
 Alpha virt. eigenvalues --    1.27385   1.29440   1.30415   1.31434   1.32746
 Alpha virt. eigenvalues --    1.36459   1.39950   1.40621   1.41631   1.44963
 Alpha virt. eigenvalues --    1.45505   1.47621   1.48861   1.50509   1.51832
 Alpha virt. eigenvalues --    1.52930   1.53798   1.54472   1.56835   1.59970
 Alpha virt. eigenvalues --    1.60372   1.61866   1.68767   1.73685   1.74030
 Alpha virt. eigenvalues --    1.75617   1.80830   1.82238   1.82496   1.83964
 Alpha virt. eigenvalues --    1.84870   1.86112   1.87128   1.87560   1.89170
 Alpha virt. eigenvalues --    1.90645   1.91239   1.92334   1.93477   1.94739
 Alpha virt. eigenvalues --    1.96993   1.98264   1.99082   1.99306   2.00616
 Alpha virt. eigenvalues --    2.01750   2.03009   2.03292   2.05356   2.06601
 Alpha virt. eigenvalues --    2.08846   2.10010   2.10976   2.11788   2.13305
 Alpha virt. eigenvalues --    2.14890   2.15539   2.16535   2.17788   2.19749
 Alpha virt. eigenvalues --    2.21785   2.23772   2.25874   2.26767   2.27581
 Alpha virt. eigenvalues --    2.30329   2.30872   2.32471   2.34138   2.36388
 Alpha virt. eigenvalues --    2.39028   2.39383   2.42222   2.44973   2.48967
 Alpha virt. eigenvalues --    2.51465   2.53470   2.54283   2.58217   2.58405
 Alpha virt. eigenvalues --    2.61830   2.63563   2.65264   2.68193   2.69193
 Alpha virt. eigenvalues --    2.72782   2.74489   2.76390   2.80455   2.81463
 Alpha virt. eigenvalues --    2.85110   2.88832   2.90324   2.92693   3.00964
 Alpha virt. eigenvalues --    3.18085   3.38012   3.88466   3.98669   4.00600
 Alpha virt. eigenvalues --    4.07205   4.09564   4.10635   4.14543   4.17528
 Alpha virt. eigenvalues --    4.23493   4.24837   4.33130   4.37830   4.39410
 Alpha virt. eigenvalues --    4.43823   4.49343   4.56474   4.71053   4.72098
  Beta  occ. eigenvalues --  -90.10999 -89.95088 -19.63578 -19.63573 -14.76830
  Beta  occ. eigenvalues --  -10.64576 -10.59935 -10.59774 -10.59702 -10.58429
  Beta  occ. eigenvalues --  -10.58206 -10.57041 -10.56897 -10.56447 -10.56307
  Beta  occ. eigenvalues --  -10.55953 -10.54713 -10.53875  -8.43023  -8.29673
  Beta  occ. eigenvalues --   -6.35136  -6.35053  -6.34767  -6.21679  -6.21479
  Beta  occ. eigenvalues --   -6.21074  -1.21064  -1.10760  -1.07562  -0.96929
  Beta  occ. eigenvalues --   -0.94831  -0.90164  -0.89583  -0.85342  -0.83514
  Beta  occ. eigenvalues --   -0.81874  -0.76495  -0.74731  -0.69020  -0.68405
  Beta  occ. eigenvalues --   -0.67450  -0.66935  -0.63900  -0.59183  -0.57765
  Beta  occ. eigenvalues --   -0.56553  -0.55714  -0.54753  -0.54335  -0.52225
  Beta  occ. eigenvalues --   -0.51532  -0.51034  -0.50273  -0.49268  -0.48618
  Beta  occ. eigenvalues --   -0.47248  -0.46686  -0.46287  -0.45326  -0.43819
  Beta  occ. eigenvalues --   -0.43515  -0.41917  -0.40524  -0.40308  -0.39916
  Beta  occ. eigenvalues --   -0.38993  -0.38272  -0.38092  -0.37249  -0.37003
  Beta  occ. eigenvalues --   -0.35259  -0.33635  -0.30131  -0.28002
  Beta virt. eigenvalues --   -0.09926   0.02462   0.02901   0.04389   0.07796
  Beta virt. eigenvalues --    0.09772   0.11315   0.12745   0.13484   0.13779
  Beta virt. eigenvalues --    0.14118   0.14503   0.16005   0.17238   0.17985
  Beta virt. eigenvalues --    0.18644   0.18878   0.19987   0.20525   0.21379
  Beta virt. eigenvalues --    0.21522   0.22075   0.22437   0.22725   0.23145
  Beta virt. eigenvalues --    0.23443   0.24390   0.25032   0.26390   0.28770
  Beta virt. eigenvalues --    0.29699   0.30260   0.31464   0.32061   0.32537
  Beta virt. eigenvalues --    0.34919   0.36462   0.39624   0.40483   0.41693
  Beta virt. eigenvalues --    0.44052   0.44491   0.45822   0.46096   0.50458
  Beta virt. eigenvalues --    0.51932   0.52641   0.54298   0.56511   0.56961
  Beta virt. eigenvalues --    0.57741   0.58073   0.59306   0.59716   0.59961
  Beta virt. eigenvalues --    0.60267   0.62265   0.62760   0.63653   0.64540
  Beta virt. eigenvalues --    0.64914   0.65378   0.65867   0.67478   0.68407
  Beta virt. eigenvalues --    0.68973   0.70202   0.71588   0.72040   0.73254
  Beta virt. eigenvalues --    0.74932   0.75241   0.76578   0.77703   0.78694
  Beta virt. eigenvalues --    0.80667   0.80996   0.82933   0.85508   0.85982
  Beta virt. eigenvalues --    0.86823   0.87653   0.88363   0.89237   0.89961
  Beta virt. eigenvalues --    0.90235   0.90753   0.91556   0.92050   0.92910
  Beta virt. eigenvalues --    0.93592   0.94327   0.95752   0.95809   0.96329
  Beta virt. eigenvalues --    0.97545   0.97742   0.97858   0.98532   0.99388
  Beta virt. eigenvalues --    1.00349   1.00988   1.02203   1.03059   1.03546
  Beta virt. eigenvalues --    1.05285   1.06455   1.07184   1.08126   1.09379
  Beta virt. eigenvalues --    1.10427   1.11836   1.12698   1.13485   1.15251
  Beta virt. eigenvalues --    1.17206   1.18348   1.18975   1.20919   1.22669
  Beta virt. eigenvalues --    1.26312   1.27696   1.29752   1.30650   1.31904
  Beta virt. eigenvalues --    1.33140   1.36738   1.40240   1.40848   1.41795
  Beta virt. eigenvalues --    1.45200   1.45728   1.47902   1.49056   1.50848
  Beta virt. eigenvalues --    1.52267   1.53344   1.54151   1.54792   1.56903
  Beta virt. eigenvalues --    1.60332   1.60972   1.61994   1.69115   1.73834
  Beta virt. eigenvalues --    1.74425   1.75755   1.80985   1.82390   1.82648
  Beta virt. eigenvalues --    1.84139   1.85096   1.86359   1.87373   1.87752
  Beta virt. eigenvalues --    1.89347   1.90909   1.91420   1.92542   1.93684
  Beta virt. eigenvalues --    1.94977   1.97123   1.98426   1.99178   1.99828
  Beta virt. eigenvalues --    2.01137   2.02024   2.03120   2.03479   2.05530
  Beta virt. eigenvalues --    2.06897   2.08927   2.10177   2.11073   2.11936
  Beta virt. eigenvalues --    2.13597   2.15171   2.15856   2.16888   2.18122
  Beta virt. eigenvalues --    2.19920   2.21887   2.24086   2.26253   2.27090
  Beta virt. eigenvalues --    2.27756   2.30602   2.31065   2.32921   2.34196
  Beta virt. eigenvalues --    2.36621   2.39089   2.39530   2.42396   2.45143
  Beta virt. eigenvalues --    2.49138   2.51793   2.53868   2.54452   2.58323
  Beta virt. eigenvalues --    2.58638   2.61977   2.63767   2.65869   2.68608
  Beta virt. eigenvalues --    2.69416   2.72963   2.75032   2.76806   2.80755
  Beta virt. eigenvalues --    2.81650   2.85237   2.89002   2.90372   2.93089
  Beta virt. eigenvalues --    3.01379   3.18702   3.38461   3.88678   4.00016
  Beta virt. eigenvalues --    4.01112   4.07400   4.09904   4.11039   4.14828
  Beta virt. eigenvalues --    4.17653   4.23712   4.25126   4.33202   4.38347
  Beta virt. eigenvalues --    4.39592   4.43796   4.49419   4.56279   4.71367
  Beta virt. eigenvalues --    4.71819
          Condensed to atoms (all electrons):
               1          2          3          4          5          6
     1  C    4.955995   0.504423  -0.075494  -0.038813  -0.039582   0.548813
     2  C    0.504423   4.628503   0.438187  -0.002945  -0.035071  -0.015289
     3  C   -0.075494   0.438187   5.216429   0.486533  -0.036609  -0.035070
     4  C   -0.038813  -0.002945   0.486533   4.950710   0.546773  -0.034811
     5  C   -0.039582  -0.035071  -0.036609   0.546773   4.879283   0.524939
     6  C    0.548813  -0.015289  -0.035070  -0.034811   0.524939   4.895833
     7  H    0.358249  -0.029327   0.006612   0.000025   0.003840  -0.039840
     8  H    0.000494   0.002441  -0.036022   0.368911  -0.033369   0.003472
     9  H    0.003616   0.000638   0.004017  -0.037152   0.370022  -0.036009
    10  H   -0.033251   0.002928   0.000572   0.004001  -0.037223   0.368621
    11  S    0.007550  -0.078408   0.305203  -0.061675   0.004067   0.000300
    12  N   -0.067466   0.412397  -0.096855   0.008494  -0.000007   0.004726
    13  C    0.009903  -0.080711  -0.047295   0.003046  -0.000067  -0.000250
    14  S    0.000262   0.002050   0.001417   0.000233  -0.000036  -0.000035
    15  O    0.000039   0.002597  -0.000031  -0.000003   0.000000  -0.000004
    16  O   -0.000003  -0.000115  -0.000677   0.000035  -0.000000   0.000000
    17  C    0.000004   0.000047   0.000110   0.000001  -0.000000  -0.000000
    18  C    0.000003  -0.000253   0.000093   0.000001  -0.000000  -0.000000
    19  H   -0.000000   0.000013  -0.000001  -0.000000   0.000000  -0.000000
    20  H    0.000000   0.000000  -0.000001  -0.000000   0.000000  -0.000000
    21  C   -0.000241   0.005309   0.002910  -0.000049   0.000002   0.000003
    22  H   -0.000000   0.000008  -0.000015   0.000000  -0.000000   0.000000
    23  H   -0.000000   0.000003   0.000000  -0.000000   0.000000   0.000000
    24  C    0.000010  -0.000125  -0.000051  -0.000003  -0.000000   0.000000
    25  H   -0.000026   0.000522   0.000007   0.000001  -0.000000   0.000000
    26  H   -0.000000   0.000004  -0.000060   0.000002  -0.000000   0.000000
    27  H   -0.000000   0.000003  -0.000004   0.000000   0.000000   0.000000
    28  C   -0.000018   0.000585  -0.000751  -0.000017   0.000002  -0.000002
    29  C   -0.000001  -0.000003   0.000009   0.000000  -0.000000   0.000000
    30  H    0.000044   0.002780  -0.000199  -0.000067  -0.000000  -0.000019
    31  H   -0.000003  -0.000022   0.000032  -0.000000   0.000000   0.000000
    32  H   -0.000000  -0.000001  -0.000000   0.000000   0.000000   0.000000
    33  H    0.000000  -0.000000   0.000001  -0.000000   0.000000   0.000000
    34  H    0.000000   0.000000  -0.000000  -0.000000   0.000000  -0.000000
               7          8          9         10         11         12
     1  C    0.358249   0.000494   0.003616  -0.033251   0.007550  -0.067466
     2  C   -0.029327   0.002441   0.000638   0.002928  -0.078408   0.412397
     3  C    0.006612  -0.036022   0.004017   0.000572   0.305203  -0.096855
     4  C    0.000025   0.368911  -0.037152   0.004001  -0.061675   0.008494
     5  C    0.003840  -0.033369   0.370022  -0.037223   0.004067  -0.000007
     6  C   -0.039840   0.003472  -0.036009   0.368621   0.000300   0.004726
     7  H    0.516254   0.000013  -0.000120  -0.004246  -0.000137  -0.002252
     8  H    0.000013   0.514570  -0.004073  -0.000131  -0.002425  -0.000112
     9  H   -0.000120  -0.004073   0.527237  -0.004110  -0.000148   0.000002
    10  H   -0.004246  -0.000131  -0.004110   0.527397   0.000018  -0.000089
    11  S   -0.000137  -0.002425  -0.000148   0.000018  15.490436  -0.071120
    12  N   -0.002252  -0.000112   0.000002  -0.000089  -0.071120   7.033832
    13  C   -0.000259  -0.000043  -0.000000   0.000004   0.232656   0.265685
    14  S    0.000034  -0.000005   0.000000  -0.000000  -0.046985  -0.049077
    15  O    0.000023   0.000000   0.000000  -0.000000   0.000585   0.003960
    16  O   -0.000000  -0.000002  -0.000000   0.000000   0.013312   0.001149
    17  C   -0.000000   0.000000  -0.000000   0.000000   0.002361   0.002084
    18  C    0.000000   0.000000  -0.000000   0.000000   0.000199   0.004380
    19  H    0.000000  -0.000000   0.000000   0.000000   0.000022   0.000153
    20  H   -0.000000  -0.000000  -0.000000  -0.000000  -0.000236  -0.000052
    21  C   -0.000007   0.000000  -0.000000  -0.000000  -0.060118  -0.047241
    22  H    0.000000   0.000000   0.000000  -0.000000   0.004461   0.000069
    23  H    0.000000  -0.000000  -0.000000  -0.000000  -0.000307  -0.000091
    24  C   -0.000000  -0.000000   0.000000  -0.000000  -0.000043  -0.004255
    25  H    0.000005   0.000000   0.000000  -0.000000   0.005895   0.003013
    26  H   -0.000000   0.000000   0.000000  -0.000000   0.005877   0.000060
    27  H    0.000000  -0.000000   0.000000  -0.000000   0.000270  -0.000124
    28  C    0.000002  -0.000000  -0.000000  -0.000000  -0.005922   0.001365
    29  C    0.000000   0.000000  -0.000000   0.000000  -0.000200   0.000135
    30  H    0.000005  -0.000002   0.000000  -0.000000   0.003366  -0.001147
    31  H    0.000001   0.000000  -0.000000  -0.000000   0.000378   0.001030
    32  H   -0.000000   0.000000  -0.000000  -0.000000   0.000002   0.000002
    33  H   -0.000000  -0.000000  -0.000000  -0.000000   0.000134   0.000000
    34  H    0.000000  -0.000000   0.000000  -0.000000  -0.000003  -0.000002
              13         14         15         16         17         18
     1  C    0.009903   0.000262   0.000039  -0.000003   0.000004   0.000003
     2  C   -0.080711   0.002050   0.002597  -0.000115   0.000047  -0.000253
     3  C   -0.047295   0.001417  -0.000031  -0.000677   0.000110   0.000093
     4  C    0.003046   0.000233  -0.000003   0.000035   0.000001   0.000001
     5  C   -0.000067  -0.000036   0.000000  -0.000000  -0.000000  -0.000000
     6  C   -0.000250  -0.000035  -0.000004   0.000000  -0.000000  -0.000000
     7  H   -0.000259   0.000034   0.000023  -0.000000  -0.000000   0.000000
     8  H   -0.000043  -0.000005   0.000000  -0.000002   0.000000   0.000000
     9  H   -0.000000   0.000000   0.000000  -0.000000  -0.000000  -0.000000
    10  H    0.000004  -0.000000  -0.000000   0.000000   0.000000   0.000000
    11  S    0.232656  -0.046985   0.000585   0.013312   0.002361   0.000199
    12  N    0.265685  -0.049077   0.003960   0.001149   0.002084   0.004380
    13  C    5.695065   0.141625  -0.032741  -0.031216  -0.054497  -0.045548
    14  S    0.141625  14.082191   0.405244   0.356276   0.106646  -0.030711
    15  O   -0.032741   0.405244   8.226370  -0.045499  -0.049132   0.001700
    16  O   -0.031216   0.356276  -0.045499   8.287863  -0.048934   0.000099
    17  C   -0.054497   0.106646  -0.049132  -0.048934   5.660750   0.297994
    18  C   -0.045548  -0.030711   0.001700   0.000099   0.297994   5.173363
    19  H   -0.000826  -0.011320   0.001152   0.001738   0.349030  -0.032185
    20  H    0.001412  -0.012972   0.000134   0.000500   0.352213  -0.023026
    21  C    0.263618  -0.060461   0.001593   0.000645  -0.040159   0.335978
    22  H   -0.007300   0.000528   0.000026   0.002863  -0.040589   0.376027
    23  H    0.005254   0.002183  -0.000045  -0.000055  -0.028304   0.381083
    24  C   -0.044279   0.000967  -0.000017  -0.000041   0.004728  -0.048111
    25  H   -0.056638   0.000482   0.000009  -0.000000  -0.002637  -0.045239
    26  H   -0.009440  -0.000147  -0.000000  -0.000003   0.000155  -0.004189
    27  H    0.006892  -0.000078   0.000000   0.000000   0.000053  -0.004418
    28  C   -0.006749   0.000093  -0.000000  -0.000000  -0.000183   0.004415
    29  C    0.000107   0.000003  -0.000000  -0.000000   0.000002  -0.000106
    30  H    0.003891   0.000094  -0.000000  -0.000000  -0.000007  -0.000008
    31  H   -0.001829  -0.000003  -0.000000   0.000000   0.000004   0.000109
    32  H    0.000006  -0.000000   0.000000   0.000000  -0.000000   0.000001
    33  H   -0.000016  -0.000000  -0.000000   0.000000   0.000000   0.000002
    34  H    0.000001   0.000000  -0.000000  -0.000000   0.000000  -0.000005
              19         20         21         22         23         24
     1  C   -0.000000   0.000000  -0.000241  -0.000000  -0.000000   0.000010
     2  C    0.000013   0.000000   0.005309   0.000008   0.000003  -0.000125
     3  C   -0.000001  -0.000001   0.002910  -0.000015   0.000000  -0.000051
     4  C   -0.000000  -0.000000  -0.000049   0.000000  -0.000000  -0.000003
     5  C    0.000000   0.000000   0.000002  -0.000000   0.000000  -0.000000
     6  C   -0.000000  -0.000000   0.000003   0.000000   0.000000   0.000000
     7  H    0.000000  -0.000000  -0.000007   0.000000   0.000000  -0.000000
     8  H   -0.000000  -0.000000   0.000000   0.000000  -0.000000  -0.000000
     9  H    0.000000  -0.000000  -0.000000   0.000000  -0.000000   0.000000
    10  H    0.000000  -0.000000  -0.000000  -0.000000  -0.000000  -0.000000
    11  S    0.000022  -0.000236  -0.060118   0.004461  -0.000307  -0.000043
    12  N    0.000153  -0.000052  -0.047241   0.000069  -0.000091  -0.004255
    13  C   -0.000826   0.001412   0.263618  -0.007300   0.005254  -0.044279
    14  S   -0.011320  -0.012972  -0.060461   0.000528   0.002183   0.000967
    15  O    0.001152   0.000134   0.001593   0.000026  -0.000045  -0.000017
    16  O    0.001738   0.000500   0.000645   0.002863  -0.000055  -0.000041
    17  C    0.349030   0.352213  -0.040159  -0.040589  -0.028304   0.004728
    18  C   -0.032185  -0.023026   0.335978   0.376027   0.381083  -0.048111
    19  H    0.480606  -0.016036  -0.002822   0.004194  -0.004664  -0.000043
    20  H   -0.016036   0.459745   0.003557  -0.002614  -0.001655  -0.000075
    21  C   -0.002822   0.003557   5.153288  -0.032705  -0.031976   0.371518
    22  H    0.004194  -0.002614  -0.032705   0.520958  -0.025658  -0.003409
    23  H   -0.004664  -0.001655  -0.031976  -0.025658   0.514564  -0.002424
    24  C   -0.000043  -0.000075   0.371518  -0.003409  -0.002424   5.053832
    25  H    0.003903   0.000078   0.389042   0.004694  -0.004249  -0.033338
    26  H   -0.000000   0.000004  -0.036262   0.003339  -0.000204   0.379192
    27  H   -0.000005  -0.000004  -0.039521  -0.000221   0.003880   0.379187
    28  C   -0.000000   0.000001  -0.038260  -0.000009   0.000001   0.366071
    29  C    0.000000  -0.000000   0.004046  -0.000002  -0.000002  -0.048973
    30  H    0.000000   0.000000  -0.008183   0.000004   0.000002  -0.037887
    31  H   -0.000002   0.000000  -0.002554   0.000003   0.000000  -0.043857
    32  H   -0.000000   0.000000  -0.000135   0.000000   0.000000   0.004309
    33  H   -0.000000   0.000000   0.000088  -0.000001   0.000000  -0.004904
    34  H    0.000000  -0.000000  -0.000026   0.000000  -0.000001  -0.004831
              25         26         27         28         29         30
     1  C   -0.000026  -0.000000  -0.000000  -0.000018  -0.000001   0.000044
     2  C    0.000522   0.000004   0.000003   0.000585  -0.000003   0.002780
     3  C    0.000007  -0.000060  -0.000004  -0.000751   0.000009  -0.000199
     4  C    0.000001   0.000002   0.000000  -0.000017   0.000000  -0.000067
     5  C   -0.000000  -0.000000   0.000000   0.000002  -0.000000  -0.000000
     6  C    0.000000   0.000000   0.000000  -0.000002   0.000000  -0.000019
     7  H    0.000005  -0.000000   0.000000   0.000002   0.000000   0.000005
     8  H    0.000000   0.000000  -0.000000  -0.000000   0.000000  -0.000002
     9  H    0.000000   0.000000   0.000000  -0.000000  -0.000000   0.000000
    10  H   -0.000000  -0.000000  -0.000000  -0.000000   0.000000  -0.000000
    11  S    0.005895   0.005877   0.000270  -0.005922  -0.000200   0.003366
    12  N    0.003013   0.000060  -0.000124   0.001365   0.000135  -0.001147
    13  C   -0.056638  -0.009440   0.006892  -0.006749   0.000107   0.003891
    14  S    0.000482  -0.000147  -0.000078   0.000093   0.000003   0.000094
    15  O    0.000009  -0.000000   0.000000  -0.000000  -0.000000  -0.000000
    16  O   -0.000000  -0.000003   0.000000  -0.000000  -0.000000  -0.000000
    17  C   -0.002637   0.000155   0.000053  -0.000183   0.000002  -0.000007
    18  C   -0.045239  -0.004189  -0.004418   0.004415  -0.000106  -0.000008
    19  H    0.003903  -0.000000  -0.000005  -0.000000   0.000000   0.000000
    20  H    0.000078   0.000004  -0.000004   0.000001  -0.000000   0.000000
    21  C    0.389042  -0.036262  -0.039521  -0.038260   0.004046  -0.008183
    22  H    0.004694   0.003339  -0.000221  -0.000009  -0.000002   0.000004
    23  H   -0.004249  -0.000204   0.003880   0.000001  -0.000002   0.000002
    24  C   -0.033338   0.379192   0.379187   0.366071  -0.048973  -0.037887
    25  H    0.543986   0.004823  -0.004533  -0.003859   0.000059  -0.000365
    26  H    0.004823   0.565454  -0.032547  -0.038156  -0.002236  -0.005221
    27  H   -0.004533  -0.032547   0.575171  -0.038899  -0.003479   0.004909
    28  C   -0.003859  -0.038156  -0.038899   5.024596   0.356134   0.385035
    29  C    0.000059  -0.002236  -0.003479   0.356134   5.098312  -0.035382
    30  H   -0.000365  -0.005221   0.004909   0.385035  -0.035382   0.553321
    31  H    0.004455   0.005129  -0.003913   0.388688  -0.037140  -0.032892
    32  H   -0.000001  -0.000044  -0.000008  -0.029514   0.382180  -0.002816
    33  H    0.000004   0.004063  -0.000261  -0.035692   0.383100  -0.004105
    34  H    0.000001  -0.000296   0.004553  -0.036866   0.383059   0.004633
              31         32         33         34
     1  C   -0.000003  -0.000000   0.000000   0.000000
     2  C   -0.000022  -0.000001  -0.000000   0.000000
     3  C    0.000032  -0.000000   0.000001  -0.000000
     4  C   -0.000000   0.000000  -0.000000  -0.000000
     5  C    0.000000   0.000000   0.000000   0.000000
     6  C    0.000000   0.000000   0.000000  -0.000000
     7  H    0.000001  -0.000000  -0.000000   0.000000
     8  H    0.000000   0.000000  -0.000000  -0.000000
     9  H   -0.000000  -0.000000  -0.000000   0.000000
    10  H   -0.000000  -0.000000  -0.000000  -0.000000
    11  S    0.000378   0.000002   0.000134  -0.000003
    12  N    0.001030   0.000002   0.000000  -0.000002
    13  C   -0.001829   0.000006  -0.000016   0.000001
    14  S   -0.000003  -0.000000  -0.000000   0.000000
    15  O   -0.000000   0.000000  -0.000000  -0.000000
    16  O    0.000000   0.000000   0.000000  -0.000000
    17  C    0.000004  -0.000000   0.000000   0.000000
    18  C    0.000109   0.000001   0.000002  -0.000005
    19  H   -0.000002  -0.000000  -0.000000   0.000000
    20  H    0.000000   0.000000   0.000000  -0.000000
    21  C   -0.002554  -0.000135   0.000088  -0.000026
    22  H    0.000003   0.000000  -0.000001   0.000000
    23  H    0.000000   0.000000   0.000000  -0.000001
    24  C   -0.043857   0.004309  -0.004904  -0.004831
    25  H    0.004455  -0.000001   0.000004   0.000001
    26  H    0.005129  -0.000044   0.004063  -0.000296
    27  H   -0.003913  -0.000008  -0.000261   0.004553
    28  C    0.388688  -0.029514  -0.035692  -0.036866
    29  C   -0.037140   0.382180   0.383100   0.383059
    30  H   -0.032892  -0.002816  -0.004105   0.004633
    31  H    0.564748  -0.002701   0.004645  -0.004079
    32  H   -0.002701   0.536948  -0.027306  -0.027718
    33  H    0.004645  -0.027306   0.551308  -0.030198
    34  H   -0.004079  -0.027718  -0.030198   0.557293
          Atomic-Atomic Spin Densities.
               1          2          3          4          5          6
     1  C    0.138382   0.018751   0.003540   0.000273  -0.007129  -0.012086
     2  C    0.018751  -0.089040   0.016283   0.000578  -0.001432   0.001349
     3  C    0.003540   0.016283   0.188270   0.010386  -0.009541  -0.001343
     4  C    0.000273   0.000578   0.010386  -0.084892  -0.006002   0.000738
     5  C   -0.007129  -0.001432  -0.009541  -0.006002   0.182607   0.012699
     6  C   -0.012086   0.001349  -0.001343   0.000738   0.012699  -0.066120
     7  H   -0.000311   0.000413  -0.000045   0.000004   0.000010   0.000259
     8  H    0.000003  -0.000045  -0.000370   0.000807  -0.000234  -0.000034
     9  H    0.000022  -0.000015   0.000028   0.000331  -0.000597   0.000333
    10  H   -0.000382  -0.000035  -0.000001  -0.000018  -0.000405   0.000819
    11  S   -0.000669  -0.001332  -0.042630   0.000968   0.000509   0.000043
    12  N   -0.009033  -0.042800  -0.011078  -0.000262   0.000163   0.000140
    13  C    0.000392   0.005366   0.001605  -0.000117  -0.000005   0.000005
    14  S    0.000452   0.002351   0.003581  -0.000012  -0.000025  -0.000012
    15  O   -0.000189  -0.000449  -0.000258  -0.000000   0.000001   0.000002
    16  O   -0.000007  -0.000184  -0.000777  -0.000003   0.000001   0.000000
    17  C   -0.000004  -0.000064  -0.000063  -0.000000   0.000000   0.000000
    18  C    0.000000   0.000014   0.000002  -0.000000  -0.000000  -0.000000
    19  H    0.000000  -0.000000   0.000000   0.000000  -0.000000  -0.000000
    20  H    0.000000   0.000001   0.000001   0.000000  -0.000000  -0.000000
    21  C   -0.000011   0.000270   0.000459   0.000002  -0.000000   0.000000
    22  H   -0.000000  -0.000001  -0.000000   0.000000   0.000000   0.000000
    23  H   -0.000000   0.000000  -0.000000  -0.000000   0.000000   0.000000
    24  C   -0.000000  -0.000008  -0.000055   0.000000   0.000000  -0.000000
    25  H    0.000000  -0.000024  -0.000005   0.000000   0.000000  -0.000000
    26  H   -0.000000  -0.000000  -0.000018  -0.000000   0.000000   0.000000
    27  H    0.000000   0.000001   0.000001  -0.000000  -0.000000  -0.000000
    28  C    0.000004   0.000028   0.000116  -0.000000  -0.000000  -0.000000
    29  C   -0.000000  -0.000010  -0.000014  -0.000000   0.000000   0.000000
    30  H   -0.000004  -0.000358   0.000020   0.000007   0.000000   0.000002
    31  H   -0.000002  -0.000011  -0.000008   0.000000   0.000000   0.000000
    32  H    0.000000   0.000000   0.000000  -0.000000  -0.000000  -0.000000
    33  H    0.000000   0.000000  -0.000000   0.000000   0.000000  -0.000000
    34  H    0.000000   0.000000   0.000000   0.000000  -0.000000  -0.000000
               7          8          9         10         11         12
     1  C   -0.000311   0.000003   0.000022  -0.000382  -0.000669  -0.009033
     2  C    0.000413  -0.000045  -0.000015  -0.000035  -0.001332  -0.042800
     3  C   -0.000045  -0.000370   0.000028  -0.000001  -0.042630  -0.011078
     4  C    0.000004   0.000807   0.000331  -0.000018   0.000968  -0.000262
     5  C    0.000010  -0.000234  -0.000597  -0.000405   0.000509   0.000163
     6  C    0.000259  -0.000034   0.000333   0.000819   0.000043   0.000140
     7  H   -0.006592  -0.000000   0.000002  -0.000018  -0.000003  -0.000180
     8  H   -0.000000   0.002349  -0.000006  -0.000001   0.000063   0.000000
     9  H    0.000002  -0.000006  -0.008738  -0.000016   0.000003   0.000000
    10  H   -0.000018  -0.000001  -0.000016   0.001971   0.000000  -0.000001
    11  S   -0.000003   0.000063   0.000003   0.000000   0.105360   0.011431
    12  N   -0.000180   0.000000   0.000000  -0.000001   0.011431   0.495097
    13  C   -0.000002   0.000000  -0.000000  -0.000000   0.009702  -0.020702
    14  S   -0.000003   0.000000  -0.000000  -0.000000  -0.030085  -0.041139
    15  O    0.000001  -0.000000   0.000000   0.000000   0.000990   0.008850
    16  O    0.000000   0.000000   0.000000   0.000000   0.009657   0.000983
    17  C    0.000000  -0.000000   0.000000   0.000000   0.002640   0.002772
    18  C   -0.000000  -0.000000  -0.000000  -0.000000  -0.001204  -0.000486
    19  H   -0.000000  -0.000000  -0.000000  -0.000000  -0.000025  -0.000082
    20  H   -0.000000   0.000000  -0.000000  -0.000000  -0.000164  -0.000043
    21  C    0.000001   0.000000   0.000000   0.000000   0.001388   0.001458
    22  H    0.000000  -0.000000  -0.000000   0.000000   0.000086   0.000017
    23  H    0.000000   0.000000   0.000000   0.000000   0.000024   0.000004
    24  C    0.000000   0.000000   0.000000   0.000000  -0.000137   0.000370
    25  H   -0.000000  -0.000000  -0.000000   0.000000  -0.000081  -0.000503
    26  H    0.000000  -0.000000  -0.000000  -0.000000   0.000476   0.000024
    27  H    0.000000   0.000000  -0.000000  -0.000000  -0.000009  -0.000018
    28  C   -0.000000   0.000000  -0.000000   0.000000  -0.000430   0.000094
    29  C   -0.000000  -0.000000  -0.000000  -0.000000   0.000240   0.000064
    30  H   -0.000000   0.000000  -0.000000   0.000000  -0.000267  -0.000153
    31  H   -0.000000  -0.000000  -0.000000   0.000000   0.000029   0.000147
    32  H    0.000000  -0.000000   0.000000  -0.000000   0.000001  -0.000000
    33  H    0.000000   0.000000   0.000000   0.000000  -0.000007  -0.000000
    34  H    0.000000   0.000000   0.000000   0.000000  -0.000005  -0.000001
              13         14         15         16         17         18
     1  C    0.000392   0.000452  -0.000189  -0.000007  -0.000004   0.000000
     2  C    0.005366   0.002351  -0.000449  -0.000184  -0.000064   0.000014
     3  C    0.001605   0.003581  -0.000258  -0.000777  -0.000063   0.000002
     4  C   -0.000117  -0.000012  -0.000000  -0.000003  -0.000000  -0.000000
     5  C   -0.000005  -0.000025   0.000001   0.000001   0.000000  -0.000000
     6  C    0.000005  -0.000012   0.000002   0.000000   0.000000  -0.000000
     7  H   -0.000002  -0.000003   0.000001   0.000000   0.000000  -0.000000
     8  H    0.000000   0.000000  -0.000000   0.000000  -0.000000  -0.000000
     9  H   -0.000000  -0.000000   0.000000   0.000000   0.000000  -0.000000
    10  H   -0.000000  -0.000000   0.000000   0.000000   0.000000  -0.000000
    11  S    0.009702  -0.030085   0.000990   0.009657   0.002640  -0.001204
    12  N   -0.020702  -0.041139   0.008850   0.000983   0.002772  -0.000486
    13  C   -0.187707   0.058137  -0.002318  -0.001424  -0.003229   0.004101
    14  S    0.058137   0.373155  -0.045268  -0.058349  -0.071043   0.006947
    15  O   -0.002318  -0.045268   0.120641   0.003344   0.002538  -0.000158
    16  O   -0.001424  -0.058349   0.003344   0.143000   0.005294  -0.000550
    17  C   -0.003229  -0.071043   0.002538   0.005294   0.140718  -0.005059
    18  C    0.004101   0.006947  -0.000158  -0.000550  -0.005059  -0.007729
    19  H    0.000125   0.002543  -0.000022  -0.000061  -0.002958  -0.000126
    20  H    0.000256   0.006916   0.000181   0.000245  -0.014548  -0.000572
    21  C   -0.007720  -0.023576   0.000623   0.000784   0.007049  -0.004489
    22  H   -0.000119  -0.000341   0.000003   0.000006   0.000189   0.000589
    23  H   -0.000150  -0.000552   0.000002   0.000008  -0.000622   0.001745
    24  C    0.003589   0.000385  -0.000001  -0.000003  -0.000041   0.001599
    25  H    0.000814   0.000359  -0.000013  -0.000003  -0.000107   0.000260
    26  H    0.000018   0.000046  -0.000000  -0.000001  -0.000010   0.000093
    27  H   -0.000192  -0.000026   0.000000   0.000000  -0.000001  -0.000250
    28  C   -0.000131   0.000051  -0.000000  -0.000000  -0.000007   0.000012
    29  C    0.000013   0.000003  -0.000000  -0.000000  -0.000000   0.000003
    30  H    0.000193  -0.000001  -0.000000  -0.000000   0.000000   0.000008
    31  H    0.000016   0.000005  -0.000000  -0.000000  -0.000001   0.000002
    32  H   -0.000002  -0.000000  -0.000000   0.000000  -0.000000  -0.000000
    33  H    0.000001  -0.000000   0.000000   0.000000   0.000000   0.000000
    34  H    0.000000  -0.000000   0.000000   0.000000  -0.000000   0.000000
              19         20         21         22         23         24
     1  C    0.000000   0.000000  -0.000011  -0.000000  -0.000000  -0.000000
     2  C   -0.000000   0.000001   0.000270  -0.000001   0.000000  -0.000008
     3  C    0.000000   0.000001   0.000459  -0.000000  -0.000000  -0.000055
     4  C    0.000000   0.000000   0.000002   0.000000  -0.000000   0.000000
     5  C   -0.000000  -0.000000  -0.000000   0.000000   0.000000   0.000000
     6  C   -0.000000  -0.000000   0.000000   0.000000   0.000000  -0.000000
     7  H   -0.000000  -0.000000   0.000001   0.000000   0.000000   0.000000
     8  H   -0.000000   0.000000   0.000000  -0.000000   0.000000   0.000000
     9  H   -0.000000  -0.000000   0.000000  -0.000000   0.000000   0.000000
    10  H   -0.000000  -0.000000   0.000000   0.000000   0.000000   0.000000
    11  S   -0.000025  -0.000164   0.001388   0.000086   0.000024  -0.000137
    12  N   -0.000082  -0.000043   0.001458   0.000017   0.000004   0.000370
    13  C    0.000125   0.000256  -0.007720  -0.000119  -0.000150   0.003589
    14  S    0.002543   0.006916  -0.023576  -0.000341  -0.000552   0.000385
    15  O   -0.000022   0.000181   0.000623   0.000003   0.000002  -0.000001
    16  O   -0.000061   0.000245   0.000784   0.000006   0.000008  -0.000003
    17  C   -0.002958  -0.014548   0.007049   0.000189  -0.000622  -0.000041
    18  C   -0.000126  -0.000572  -0.004489   0.000589   0.001745   0.001599
    19  H   -0.002094   0.001077  -0.000265  -0.000041  -0.000040  -0.000000
    20  H    0.001077   0.014017  -0.000309  -0.000172  -0.000280   0.000003
    21  C   -0.000265  -0.000309   0.050343  -0.000171  -0.000330  -0.002909
    22  H   -0.000041  -0.000172  -0.000171  -0.000130   0.000132  -0.000013
    23  H   -0.000040  -0.000280  -0.000330   0.000132   0.001269   0.000020
[...]
 6,0.00003556,-0.00000990,0.00018201,-0.00008256,0.00012584,-0.00033807
 ,-0.00043078,-0.00046994,-0.00000661,0.00000686,0.00000218,-0.00006170
 ,-0.00007387,-0.00002141,0.00194183,-0.00091201,0.00169965,-0.00000187
 ,-0.00000011,0.00002276,0.00001658,-0.00001077,-0.00001470,-0.00060483
 ,-0.02744311,-0.00471519,0.00006535,-0.00011336,-0.00002635,-0.0011534
 9,0.00145910,-0.00067998,-0.00143716,0.00173605,-0.00073716,-0.0229756
 0,-0.19721089,-0.03404112,-0.02068474,0.50923754,-0.00007518,-0.000011
 57,-0.00007505,0.00014339,-0.00004534,-0.00002041,-0.00001078,-0.00002
 443,0.00001193,0.00000005,0.00000212,0.00007142,0.00002886,-0.00000111
 ,0.00001855,0.00003482,0.,-0.00005354,0.00001129,0.00000712,0.00000574
 ,0.00000796,0.00001091,-0.00001064,0.00000819,0.00000082,0.00000432,0.
 00000725,-0.00000066,-0.00000109,-0.00000005,0.00012182,0.00017368,-0.
 00010819,-0.00014425,-0.00005109,-0.00055616,0.00000480,0.00003801,-0.
 00016555,-0.00020540,-0.00002035,0.00007176,0.00008783,0.00006076,0.00
 003790,0.00009683,-0.00006425,-0.00027845,0.00025244,-0.00023567,0.000
 24029,0.00081830,0.00086274,0.00000418,-0.00000182,-0.00000032,0.00004
 741,0.00015607,0.00005755,-0.00210976,0.00177744,-0.00222244,0.0000913
 8,-0.00005128,0.00000584,0.00001201,-0.00002861,0.00000864,0.00366827,
 0.01380025,0.00475913,-0.00012541,0.00010336,0.00035603,0.00002342,0.0
 0126974,0.00051768,0.00036485,-0.00035619,0.00023695,-0.00640798,-0.03
 553145,-0.09221585,-0.00138159,-0.02713684,0.57907712,-0.00005684,0.00
 004817,0.00001437,0.00032714,0.00003629,-0.00007370,0.00073529,0.00024
 462,0.00019990,-0.00031496,0.00004636,-0.00003417,0.00008309,0.0000063
 8,0.00014886,0.00004442,-0.00001081,-0.00007476,0.00000236,0.00000146,
 -0.00000096,0.00000559,0.00000068,-0.00000179,-0.00001025,-0.00000076,
 0.00000215,-0.00001025,-0.00000086,-0.00000457,-0.00004151,-0.00086145
 ,-0.00013237,0.00011531,-0.00079618,-0.00034126,-0.00023124,-0.0001920
 2,0.00077297,-0.00037832,0.00067766,0.00015552,0.00013991,-0.00009121,
 -0.00002650,0.00018251,-0.00015804,-0.00008508,-0.00003339,-0.00013604
 ,-0.00006810,0.00012160,0.00017919,-0.00006196,0.00004976,0.00000797,-
 0.00000200,0.00007254,0.00006809,-0.00000513,-0.00034919,-0.00070388,-
 0.00013950,-0.00004245,-0.00001569,-0.00001807,0.00021028,-0.00007952,
 0.00002275,-0.02157585,-0.00468031,0.00598312,-0.00002170,0.00006811,-
 0.00007786,0.00074529,-0.00033342,0.00004334,-0.00174064,0.00312361,-0
 .00219680,-0.27636176,-0.06211659,0.06842711,-0.00351765,-0.00149974,0
 .00098449,0.30088359,-0.00004533,0.00007975,-0.00001514,-0.00067203,-0
 .00038036,0.00010630,-0.00014094,0.00003328,-0.00011651,-0.00010734,0.
 00000053,0.00002436,0.00008103,-0.00000728,0.00006225,0.00009342,-0.00
 001755,-0.00001339,0.00000681,0.00000379,0.00001144,0.00001143,0.00001
 366,-0.00001644,0.00001683,0.00000746,0.00000277,0.00001357,-0.0000009
 0,0.00000032,0.00010663,-0.00086112,0.00066600,-0.00001199,-0.00061105
 ,-0.00025425,0.00050570,-0.00225686,-0.00010926,0.00026351,-0.00024478
 ,0.00006060,-0.00006937,0.00015066,0.00006940,-0.00011477,0.00007842,-
 0.00006652,-0.00015103,0.00009213,-0.00001641,0.00006202,-0.00004688,0
 .00018626,-0.00000374,-0.00000014,-0.00000044,-0.00004597,-0.00000510,
 0.00001952,0.00006406,0.00116580,-0.00036467,0.00001661,0.00000771,0.0
 0000413,-0.00020523,0.00002080,-0.00001459,0.02083433,0.00529117,-0.00
 692257,0.00000438,-0.00001357,0.00001933,-0.00100054,0.00061876,-0.000
 06651,0.00305627,-0.00271074,0.00206211,-0.06279121,-0.06432251,0.0191
 4957,-0.03076123,-0.01011185,0.00937544,0.06808834,0.07753022,-0.00016
 546,0.00005744,-0.00007619,-0.00027348,-0.00030527,-0.00000301,0.00066
 006,-0.00005547,0.00045677,-0.00028851,-0.00000459,-0.00004409,0.00011
 021,0.00001055,0.00021853,0.00006022,0.00001472,-0.00017729,-0.0000161
 3,-0.00004161,-0.00002783,0.00001703,0.00000549,-0.00001567,-0.0000012
 6,0.00000135,-0.00000482,0.00000537,-0.00001123,-0.00000474,-0.0003435
 4,0.00059327,-0.00093107,0.00011794,0.00037665,-0.00037600,-0.00000594
 ,0.00072002,0.00087085,0.00003751,-0.00025618,0.00008361,-0.00000742,0
 .00002124,-0.00000357,0.00000759,0.00002604,-0.00008893,0.00012287,0.0
 0003828,-0.00001822,-0.00008925,-0.00004884,0.00001245,-0.00001822,-0.
 00000023,-0.00000122,-0.00001645,-0.00001668,0.00000008,0.00056949,-0.
 00050186,0.00004815,0.00000197,-0.00001330,-0.00001299,0.00006652,-0.0
 0004223,-0.00002585,-0.01459578,-0.00405012,0.00375250,0.00006561,0.00
 011025,0.00000638,0.00018808,-0.00079033,0.00055782,-0.00259177,0.0019
 9864,-0.00049208,0.06923398,0.01896083,-0.07133757,-0.00955872,-0.0029
 1186,0.00251703,-0.07338524,-0.02133514,0.07321120,-0.00006798,0.00002
 291,0.00001866,-0.00000544,-0.00000951,-0.00000721,0.00039932,0.000107
 60,0.00020326,-0.00013826,-0.00000897,-0.00003197,0.00006907,0.0000011
 3,0.00012192,0.00004169,0.00000613,-0.00009797,-0.00001869,-0.00003484
 ,-0.00001994,0.00000643,0.00001229,-0.00001116,0.00000041,0.00000148,-
 0.00000323,-0.00000164,-0.00000379,-0.00000248,-0.00024841,-0.00059193
 ,-0.00009480,0.00000133,0.00058122,-0.00015251,-0.00003423,0.00018763,
 0.00046648,-0.00000616,-0.00002483,0.00008230,-0.00000216,0.00002383,0
 .00000442,0.00002731,-0.00001329,-0.00005870,0.00001050,-0.00001254,0.
 00007963,-0.00009471,-0.00010975,0.00005038,0.00000708,0.00003696,0.00
 000917,-0.00000984,-0.00001177,-0.00000833,0.00070157,-0.00098449,-0.0
 0030629,0.00003011,-0.00009146,0.00012749,-0.00003870,-0.00001155,-0.0
 0004205,0.00051916,-0.00063832,-0.02438232,0.00007527,0.00028822,0.000
 47545,-0.00259852,0.00312582,-0.00206763,0.00070319,-0.00086842,0.0002
 1775,-0.05168979,0.00062358,0.01432285,-0.00012905,-0.00083800,-0.0063
 6800,-0.00088508,0.00290897,0.03106751,0.05249131,-0.00000650,0.000001
 38,-0.00000017,-0.00021454,0.00003113,0.00000415,0.00029143,-0.0000238
 0,0.00002546,-0.00011111,-0.00000429,-0.00003011,0.00004912,0.00000630
 ,0.00007360,0.00002549,-0.00000509,-0.00005153,-0.00001366,-0.00000110
 ,-0.00000695,0.00000338,-0.00000179,0.00000058,-0.00000220,0.00000129,
 -0.00000191,0.00000390,0.00000106,-0.00000151,0.00006124,-0.00013203,-
 0.00017115,0.00010229,0.00028366,-0.00018603,-0.00010022,0.00029536,0.
 00029366,0.00000514,-0.00015778,0.00013565,-0.00001007,0.00001958,-0.0
 0002850,0.00001377,-0.00001863,-0.00004884,-0.00001146,0.00005298,-0.0
 0008958,0.00013599,0.00002180,-0.00005227,-0.00000053,-0.00004194,-0.0
 0002122,-0.00000459,0.00000995,0.00000676,-0.00035004,0.00124113,0.001
 55503,-0.00005708,0.00005187,-0.00017953,-0.00002127,0.00002773,0.0000
 1609,-0.00135306,-0.00013948,0.02244631,0.00027426,-0.00039411,-0.0005
 5180,0.00326364,-0.00261206,0.00182510,-0.00030101,0.00052777,-0.00079
 637,0.00076938,-0.04958396,-0.02168797,0.00211193,-0.00360680,-0.03386
 410,-0.00013739,0.00013498,0.00847027,-0.00330572,0.05787570,0.0000373
 8,-0.00004164,-0.00002304,0.00013635,0.00006780,0.00003801,-0.00041554
 ,0.00006071,-0.00005691,0.00018471,0.00000788,0.00003642,-0.00006891,-
 0.00001389,-0.00012785,-0.00004013,-0.00000083,0.00008334,0.00002257,0
 .00002509,0.00001683,-0.00000813,-0.00000545,0.00000652,-0.00000010,0.
 00000022,0.00000280,0.00000263,0.00000492,0.00000240,0.00003624,0.0001
 3875,0.00031929,-0.00008189,-0.00039708,0.00010887,0.00006295,0.000116
 74,-0.00051136,-0.00003625,0.00004522,-0.00017205,0.00001974,0.0000047
 6,0.00005787,-0.00000454,0.00003478,0.00006837,-0.00004629,0.00003716,
 0.00001815,-0.00005500,0.00005710,0.00048399,-0.00000722,0.00004075,0.
 00000266,0.00001355,0.00002766,0.00000513,0.00032986,-0.00082377,0.000
 35447,0.00012885,-0.00022314,0.00007891,0.00000923,-0.00002439,-0.0000
 4443,0.00059809,-0.00021106,-0.01462076,-0.00006802,0.00099689,0.00036
 018,-0.00229394,0.00156509,0.00020081,-0.00024918,-0.00012563,0.000491
 08,0.01404747,-0.02139986,-0.31003215,0.00056508,-0.00094633,-0.006869
 52,0.00068551,-0.00069984,-0.00897970,-0.01293182,0.02346110,0.3367425
 8,-0.00000901,-0.00000180,-0.00001551,-0.00000928,-0.00001875,0.000000
 56,-0.00002972,-0.00000051,-0.00000468,0.00000899,0.00000256,0.0000145
 2,-0.00000117,0.00000002,-0.00000069,0.00000270,0.00000074,-0.00000668
 ,-0.00000026,0.00000019,0.00000047,-0.00000086,-0.00000161,-0.00000058
 ,0.00000299,-0.00000021,-0.00000014,0.00000404,0.00000040,0.00000084,0
 .00002619,0.00001706,0.00002472,0.00001809,0.00005987,-0.00001093,0.00
 001243,0.00007766,0.00004588,0.00002914,-0.00008547,-0.00000537,0.0000
 0441,0.00005037,0.00003058,-0.00000861,0.00004122,-0.00002014,0.000022
 81,-0.00002238,0.00001264,-0.00002238,-0.00011311,-0.00004075,0.000000
 49,-0.00000080,-0.00000035,-0.00000392,-0.00001227,-0.00000433,0.00055
 810,-0.00034059,-0.00008172,-0.00000551,0.00000039,0.00000295,0.000005
 12,-0.00000834,-0.00001054,0.00004771,-0.00119573,-0.00021032,-0.00000
 111,0.00001256,0.00000307,-0.00013307,0.00000774,-0.00010996,0.0004967
 3,-0.00019772,-0.00004645,0.00520012,-0.00560118,0.00431689,-0.1728688
 1,0.11379559,-0.07715604,0.00049166,0.00039138,0.00036065,0.00004848,0
 .00057900,0.00018273,0.18329597,0.00006478,0.00002479,0.00004309,-0.00
 010870,0.00000777,0.00003060,0.00007298,-0.00001666,0.00002838,-0.0000
 6392,0.00000876,-0.00005534,-0.00003447,0.00001153,0.00000331,-0.00005
 037,0.00001622,0.00004779,0.00000028,-0.00001806,-0.00001091,-0.000000
 72,-0.00001113,0.00001094,-0.00001069,-0.00000749,-0.00000134,-0.00001
 377,-0.00000924,-0.00000221,-0.00007253,-0.00000446,-0.00006816,0.0000
 3158,-0.00002539,0.00005886,0.00031778,0.00032066,-0.00015923,0.000189
 10,0.00004109,-0.00002216,-0.00008012,-0.00009771,-0.00005963,-0.00005
 293,-0.00007215,0.00006548,0.00020479,-0.00010252,0.00016223,-0.000330
 27,-0.00054457,-0.00036273,-0.00002274,0.00000581,0.00000058,-0.000049
 91,-0.00011026,-0.00003542,0.00163071,-0.00071789,0.00126807,0.0000030
 1,0.00000505,0.00001723,-0.00001440,0.00002226,-0.00001816,-0.00316786
 ,-0.00543382,-0.00333761,0.00000596,0.00001729,-0.00002881,-0.00024063
 ,0.00015156,0.00003310,-0.00002993,0.00015593,-0.00024596,0.02187907,-
 0.01824128,0.01439360,0.11315697,-0.15224863,0.07111799,-0.00028213,0.
 00101514,0.00054435,0.00025733,0.00116908,-0.00031951,-0.12323812,0.16
 609277,-0.00000497,-0.00000038,0.00000775,-0.00001734,-0.00000070,0.00
 001277,-0.00005686,0.00001185,-0.00001150,0.00002190,-0.00000856,0.000
 00437,0.00000472,-0.00000655,-0.00000383,0.00000621,-0.00000190,-0.000
 00258,-0.00000221,-0.00000352,-0.00000064,-0.00000114,0.00000767,-0.00
 000537,0.00000432,0.00000447,-0.00000099,0.00000098,0.00000205,0.00000
 133,0.00002044,-0.00001263,-0.00000179,0.00001306,0.00004430,-0.000007
 62,0.00005783,-0.00002608,-0.00000502,-0.00000061,-0.00000846,0.000003
 23,-0.00000115,-0.00000046,-0.00000428,0.00000135,0.00000190,0.0000038
 3,0.00003882,-0.00003044,0.00002656,-0.00003420,-0.00015256,-0.0000802
 8,0.00000121,-0.00000202,-0.00000163,-0.00000419,-0.00001690,-0.000011
 00,0.00015493,-0.00045758,0.00067821,-0.00001296,-0.00000397,0.0000014
 8,-0.00000012,0.00000656,-0.00000700,-0.00042609,-0.00168039,-0.000343
 18,0.00002511,0.00011046,0.00001661,0.00010297,-0.00033347,0.00040702,
 -0.00025783,0.00003599,-0.00017412,0.00824749,-0.00668328,0.00388396,-
 0.07722502,0.07156947,-0.09767639,-0.00003622,0.00064718,0.00009912,0.
 00046040,0.00046149,0.00034168,0.08487614,-0.07652462,0.10125536,0.000
 03434,-0.00000048,0.00000387,-0.00004258,0.00000927,0.00001211,-0.0000
 7499,-0.00001329,-0.00003222,0.00002933,0.00001097,-0.00000894,-0.0000
 3119,0.00000351,-0.00003349,-0.00002378,0.00000248,0.00003630,0.000002
 54,0.00000337,0.00000173,-0.00000367,-0.00001300,0.00000920,-0.0000031
 0,-0.00000386,-0.00000034,-0.00000073,-0.00000097,0.00000093,0.0000309
 8,0.00009989,0.00006496,0.00000634,-0.00006626,0.00005092,0.00007794,0
 .00001659,-0.00013314,0.00004509,-0.00001967,-0.00001524,-0.00001820,0
 .00000082,0.00000274,-0.00002471,0.00000629,0.00000593,0.00000394,0.00
 001879,-0.00000286,-0.00002846,0.00000042,0.00002656,-0.00000807,-0.00
 000452,-0.00000108,-0.00000904,-0.00000822,0.00000189,-0.00006471,0.00
 005437,-0.00005730,0.00001517,0.00000926,-0.00000713,-0.00000695,0.000
 00362,0.00000853,-0.00000129,0.00024528,0.00066521,-0.00004151,0.00000
 779,-0.00001926,0.00025841,0.00018419,0.00004412,-0.00003261,-0.000075
 61,0.00015469,-0.00023723,-0.00057836,-0.00733996,-0.05138343,0.001922
 72,0.01732287,0.00004996,0.00045477,-0.00046058,0.00064382,-0.00152165
 ,-0.00039615,0.00187776,-0.00337966,-0.02315583,0.04957193,0.00002589,
 -0.00001163,-0.00000361,0.00005043,0.00002682,0.00002143,-0.00018580,0
 .00005020,-0.00003934,0.00009679,0.00000143,0.00001382,-0.00003678,-0.
 00000680,-0.00006102,-0.00002050,0.00000127,0.00004110,0.00000772,0.00
 000617,0.00000506,-0.00000504,-0.00000183,0.00000272,0.00000109,0.0000
 0037,0.00000069,0.00000024,0.00000095,0.00000173,0.00005394,0.00006330
 ,0.00015312,-0.00003507,-0.00015263,0.00006610,0.00003049,-0.00002360,
 -0.00016109,-0.00001790,0.00005236,-0.00005269,0.00000656,0.00000888,0
 .00002374,-0.00000155,0.00001759,0.00001321,-0.00002226,0.00000942,-0.
 00000250,0.00000150,0.00000338,0.00012357,-0.00000010,0.00000620,-0.00
 000066,0.00000525,0.00000987,-0.00000082,-0.00013963,0.00000980,0.0001
 0352,0.00002613,-0.00004213,0.00002294,0.00000164,-0.00000334,-0.00000
 582,-0.00040059,0.00186535,-0.00152058,-0.00002090,0.00017919,0.000213
 63,0.00023975,-0.00039962,0.00085647,0.00009989,-0.00003594,0.00011253
 ,0.00284968,-0.00359616,-0.03405072,0.00189909,-0.05074007,-0.02400122
 ,0.00001812,0.00142634,0.00054604,-0.00112689,-0.00642693,-0.00142800,
 -0.00308740,0.00211814,0.02075579,-0.00081389,0.05566681,0.00003163,-0
 .00001002,0.00000373,0.00002470,0.00002962,0.00000922,-0.00007303,0.00
 002677,-0.00001029,0.00004566,0.00000810,-0.00001194,-0.00002985,0.000
 00015,-0.00004179,-0.00002301,-0.00000075,0.00003977,0.00000676,0.0000
 1028,0.00000456,-0.00000494,-0.00000956,0.00000866,-0.00000540,-0.0000
 0257,0.00000042,-0.00000101,0.00000097,0.00000018,-0.00001203,-0.00009
 510,0.00007330,-0.00003367,-0.00014225,0.00008160,0.00005856,0.0000129
 2,-0.00014177,0.00000520,0.00007954,-0.00005457,-0.00000726,-0.0000276
 0,0.00000702,-0.00000273,-0.00002578,0.00004315,0.00001502,-0.00002105
 ,0.00001974,-0.00003592,-0.00007423,-0.00001471,-0.00000228,0.00000493
 ,-0.00000041,-0.00000308,-0.00001224,-0.00000660,0.00000987,-0.0000223
 7,0.00046236,0.00000174,-0.00002266,0.00000736,-0.00000708,0.00000693,
 -0.00001213,-0.00004605,0.00076569,0.00054710,-0.00002802,0.00025482,0
 .00002581,0.00048863,-0.00071450,0.00035942,-0.00002670,-0.00012602,-0
 .00007413,0.00011369,-0.00103925,-0.00846570,0.01711606,-0.02423608,-0
 .31628595,-0.00026261,-0.00012982,0.00042032,-0.00065306,-0.00164418,0
 .00126285,0.00160121,-0.00126286,-0.01246792,-0.01822766,0.02878705,0.
 34235779,-0.00000749,-0.00000681,0.00001514,0.00007447,0.00001423,-0.0
 0001198,0.00006610,0.00001039,0.00002236,-0.00001312,-0.00001285,-0.00
 001320,0.00001522,-0.00000276,0.00000978,0.00001108,-0.00000654,-0.000
 00796,0.00000078,0.00000748,0.00000193,0.00000159,0.00000835,-0.000002
 14,-0.00000359,0.00000376,0.00000065,-0.00000425,0.00000303,-0.0000014
 6,-0.00002626,0.00000169,-0.00005425,-0.00007337,-0.00008865,-0.000022
 14,0.00000209,0.00019712,0.00003281,-0.00001373,0.00018743,0.00000831,
 0.00000002,-0.00007422,-0.00004669,0.00002239,-0.00006758,0.00003412,0
 .00002563,-0.00006511,0.00002900,-0.00004785,-0.00007302,-0.00003785,0
 .00000152,0.00000226,-0.00000103,0.00000792,-0.00001130,-0.00000835,0.
 00031993,0.00001093,-0.00005954,-0.00000312,0.00000018,0.00000082,0.00
 000593,-0.00000269,-0.00000009,0.00082875,0.00077993,-0.00014085,-0.00
 002445,-0.00001773,-0.00001589,-0.00002939,-0.00003629,-0.00006069,0.0
 0048520,-0.00057159,0.00033557,-0.00529415,-0.00151276,0.00092117,-0.2
 7510119,-0.06856943,0.07163250,0.00131077,-0.00085934,-0.00087486,0.00
 019260,-0.00016786,-0.00035987,-0.01906020,-0.00657048,0.00719887,-0.0
 0061130,0.00050013,-0.00003334,0.29694144,-0.00001256,-0.00000889,0.00
 000245,0.00023255,0.00004781,-0.00004440,0.00010688,0.00007040,0.00004
 473,0.00001013,-0.00000228,-0.00000769,-0.00000252,0.00000124,0.000004
 77,0.00000395,-0.00000155,-0.00001440,0.00000132,0.00000404,0.00000152
 ,-0.00000160,-0.00000065,0.00000239,-0.00000568,-0.00000151,0.00000077
 ,-0.00000475,0.00000003,-0.00000111,-0.00002409,-0.00009600,-0.0000268
 7,-0.00011565,-0.00021576,-0.00004014,-0.00005997,-0.00007291,0.000143
 42,-0.00010375,0.00031460,0.00001426,0.00003478,-0.00003655,-0.0000092
 0,0.00004761,-0.00004649,-0.00000761,-0.00001496,-0.00007091,-0.000001
 21,0.00003260,-0.00000324,0.00000003,0.00001191,0.00000144,-0.00000189
 ,0.00002655,0.00001448,-0.00000450,0.00017717,0.00020717,-0.00028326,-
 0.00000794,-0.00000147,-0.00000189,0.00004353,-0.00002383,0.00000570,-
 0.00207580,0.00160762,0.00020197,-0.00002990,0.00000010,-0.00000938,0.
 00010445,-0.00003232,0.00001691,0.00114851,-0.00031062,0.00002127,-0.0
 3043784,-0.00997357,0.01050771,-0.06839128,-0.06962811,0.02240102,-0.0
 0051902,-0.00607991,-0.00211044,0.00050097,0.00139703,-0.00003221,0.01
 888926,0.00647741,-0.00770469,0.00344503,-0.00008320,-0.00036888,0.076
 99014,0.07654640,0.00002410,0.00000023,0.00001377,0.00000682,0.0000206
 4,0.00000239,-0.00002252,0.00001739,-0.00001472,0.00002261,0.00000473,
 -0.00001121,-0.00001867,0.00000105,-0.00002012,-0.00001449,0.00000083,
 0.00002075,-0.00000048,0.00000011,0.00000054,-0.00000351,-0.00000710,0
 .00000513,-0.00000227,-0.00000198,-0.00000059,-0.00000194,-0.00000051,
 0.00000090,-0.00000177,-0.00005504,0.00002855,-0.00001890,-0.00006979,
 0.00001201,0.00003595,-0.00008676,-0.00005181,-0.00000344,0.00006188,0
 .00001173,-0.00000671,-0.00000919,-0.00000854,-0.00000322,-0.00001044,
 -0.00000161,-0.00001926,0.00000257,0.00000181,0.00002789,0.00002725,-0
 .00000962,0.00000059,-0.00000332,-0.00000092,0.00000040,0.00000088,0.0
 0000017,-0.00018901,0.00010899,-0.00001402,0.00000395,0.00000651,-0.00
 000513,-0.00001040,0.00000790,0.00001464,0.00017005,0.00045704,-0.0001
 3494,-0.00000604,-0.00002416,-0.00003050,0.00016139,-0.00001648,-0.000
 02255,0.00006088,0.00032750,0.00016642,-0.01030513,-0.00307609,0.00280
 425,0.07175366,0.02254863,-0.07298054,-0.00041141,-0.00232547,0.000366
 04,-0.00046819,0.00063846,0.00035457,-0.01374865,-0.00531092,0.0040618
 5,0.03147861,0.00946381,-0.00814645,-0.07849086,-0.02269917,0.07358774
 \\0.00000046,0.00000005,0.00000154,-0.00000046,0.00000057,0.00000142,0
 .00000110,0.00000010,-0.00000085,0.00000090,0.00000036,0.00000128,0.00
 000027,0.00000007,0.00000190,-0.00000080,0.00000048,0.00000201,-0.0000
 0111,0.00000001,0.00000163,0.00000118,-0.00000002,0.00000114,0.0000009
 6,0.00000050,0.00000219,-0.00000036,0.00000010,0.00000240,-0.00000061,
 -0.00000125,0.00000275,-0.00000211,-0.00000153,-0.00000175,0.00000056,
 -0.00000165,0.00000151,0.00000235,0.00000394,-0.00000293,-0.00000122,0
 .00000235,0.00000116,-0.00000194,-0.00000076,-0.00000054,-0.00000184,-
 0.00000385,0.00000108,0.00000183,-0.00000040,-0.00000264,-0.00000045,0
 .00000007,-0.00000102,-0.00000008,0.00000033,-0.00000246,0.00000173,0.
 00000151,-0.00000104,0.00000045,0.00000006,-0.00000184,-0.00000063,-0.
 00000033,-0.00000198,-0.00000009,-0.00000014,-0.00000053,-0.00000099,0
 .00000032,-0.00000059,0.00000014,-0.00000072,-0.00000113,0.00000021,-0
 .00000009,-0.00000115,-0.00000018,-0.00000023,-0.00000073,0.00000116,0
 .00000013,-0.00000018,0.00000022,0.00000080,0.00000057,-0.00000055,-0.
 00000031,0.00000007,-0.00000027,-0.00000015,0.00000022,0.00000070,-0.0
 0000019,-0.00000073,-0.00000052,-0.00000012,-0.00000077\\\@
 The archive entry for this job was punched.


 FIREWORKS ENDED
 AND SPECTATORS GONE AWAY....
 AH, HOW VAST AND DARK
                     SHIKI
 Job cpu time:       0 days  2 hours 45 minutes  4.4 seconds.
 Elapsed time:       0 days  0 hours  1 minutes 50.8 seconds.
 File lengths (MBytes):  RWF=    765 Int=      0 D2E=      0 Chk=     13 Scr=      1
 Normal termination of Gaussian 16 at Thu Nov 20 14:06:54 2025.
