 Entering Gaussian System, Link 0=g16
 Initial command:
 /public/software/g16/l1.exe "/tmp/Gau-33646.inp" -scrdir="/tmp/"
 Entering Link 1 = /public/software/g16/l1.exe PID=     33648.
  
 Copyright (c) 1988-2021, Gaussian, Inc.  All Rights Reserved.
  
 This is part of the Gaussian(R) 16 program.  It is based on
 the Gaussian(R) 09 system (copyright 2009, Gaussian, Inc.),
 the Gaussian(R) 03 system (copyright 2003, Gaussian, Inc.),
 the Gaussian(R) 98 system (copyright 1998, Gaussian, Inc.),
 the Gaussian(R) 94 system (copyright 1995, Gaussian, Inc.),
 the Gaussian 92(TM) system (copyright 1992, Gaussian, Inc.),
 the Gaussian 90(TM) system (copyright 1990, Gaussian, Inc.),
 the Gaussian 88(TM) system (copyright 1988, Gaussian, Inc.),
 the Gaussian 86(TM) system (copyright 1986, Carnegie Mellon
 University), and the Gaussian 82(TM) system (copyright 1983,
 Carnegie Mellon University). Gaussian is a federally registered
 trademark of Gaussian, Inc.
  
 This software contains proprietary and confidential information,
 including trade secrets, belonging to Gaussian, Inc.
  
 This software is provided under written license and may be
 used, copied, transmitted, or stored only in accord with that
 written license.
  
 The following legend is applicable only to US Government
 contracts under FAR:
  
                    RESTRICTED RIGHTS LEGEND
  
 Use, reproduction and disclosure by the US Government is
 subject to restrictions as set forth in subparagraphs (a)
 and (c) of the Commercial Computer Software - Restricted
 Rights clause in FAR 52.227-19.
  
 Gaussian, Inc.
 340 Quinnipiac St., Bldg. 40, Wallingford CT 06492
  
  
 ---------------------------------------------------------------
 Warning -- This program may not be used in any manner that
 competes with the business of Gaussian, Inc. or will provide
 assistance to any competitor of Gaussian, Inc.  The licensee
 of this program is prohibited from giving any competitor of
 Gaussian, Inc. access to this program.  By using this program,
 the user acknowledges that Gaussian, Inc. is engaged in the
 business of creating and licensing software in the field of
 computational chemistry and represents and warrants to the
 licensee that it is not a competitor of Gaussian, Inc. and that
 it will not use this program in any manner prohibited above.
 ---------------------------------------------------------------
  

 Cite this work as:
 Gaussian 16, Revision C.02,
 M. J. Frisch, G. W. Trucks, H. B. Schlegel, G. E. Scuseria, 
 M. A. Robb, J. R. Cheeseman, G. Scalmani, V. Barone, 
 G. A. Petersson, H. Nakatsuji, X. Li, M. Caricato, A. V. Marenich, 
 J. Bloino, B. G. Janesko, R. Gomperts, B. Mennucci, H. P. Hratchian, 
 J. V. Ortiz, A. F. Izmaylov, J. L. Sonnenberg, D. Williams-Young, 
 F. Ding, F. Lipparini, F. Egidi, J. Goings, B. Peng, A. Petrone, 
 T. Henderson, D. Ranasinghe, V. G. Zakrzewski, J. Gao, N. Rega, 
 G. Zheng, W. Liang, M. Hada, M. Ehara, K. Toyota, R. Fukuda, 
 J. Hasegawa, M. Ishida, T. Nakajima, Y. Honda, O. Kitao, H. Nakai, 
 T. Vreven, K. Throssell, J. A. Montgomery, Jr., J. E. Peralta, 
 F. Ogliaro, M. J. Bearpark, J. J. Heyd, E. N. Brothers, K. N. Kudin, 
 V. N. Staroverov, T. A. Keith, R. Kobayashi, J. Normand, 
 K. Raghavachari, A. P. Rendell, J. C. Burant, S. S. Iyengar, 
 J. Tomasi, M. Cossi, J. M. Millam, M. Klene, C. Adamo, R. Cammi, 
 J. W. Ochterski, R. L. Martin, K. Morokuma, O. Farkas, 
 J. B. Foresman, and D. J. Fox, Gaussian, Inc., Wallingford CT, 2019.
 
 ******************************************
 Gaussian 16:  ES64L-G16RevC.02  7-Dec-2021
                20-Nov-2025 
 ******************************************
 %nprocshared=96
 Will use up to   96 processors via shared memory.
 %mem=50GB
 %chk=TS3.chk
 ---------------------------------------------
 # opt=(calcfc,ts,noeigen) freq 6-31g(d) m062x
 ---------------------------------------------
 1/5=1,10=4,11=1,18=20,26=3,38=1/1,3;
 2/9=110,12=2,17=6,18=5,40=1/2;
 3/5=1,6=6,7=1,11=2,25=1,30=1,71=2,74=-55,140=1/1,2,3;
 4//1;
 5/5=2,38=5/2;
 8/6=4,10=90,11=11/1;
 11/6=1,8=1,9=11,15=111,16=1/1,2,10;
 10/6=1,13=1/2;
 6/7=2,8=2,9=2,10=2,28=1/1;
 7/10=1,25=1/1,2,3,16;
 1/5=1,10=4,11=1,18=20,26=3/3(2);
 2/9=110/2;
 99//99;
 2/9=110/2;
 3/5=1,6=6,7=1,11=2,25=1,30=1,71=1,74=-55/1,2,3;
 4/5=5,16=3,69=1/1;
 5/5=2,38=5/2;
 7//1,2,3,16;
 1/5=1,11=1,18=20,26=3/3(-5);
 2/9=110/2;
 6/7=2,8=2,9=2,10=2,19=2,28=1/1;
 99/9=1/99;
 -------------------
 Title Card Required
 -------------------
 Symbolic Z-matrix:
 Charge =  0 Multiplicity = 2
 C                    -5.36373  -0.78295   1.28097 
 C                    -4.51763  -0.22101   0.31575 
 C                    -4.43303  -0.7911   -0.97173 
 C                    -5.17451  -1.92779  -1.30748 
 C                    -5.99746  -2.47712  -0.33724 
 C                    -6.09369  -1.90903   0.94712 
 H                    -5.42434  -0.32585   2.26305 
 H                    -5.10735  -2.36758  -2.29698 
 H                    -6.58223  -3.3601   -0.57423 
 H                    -6.75284  -2.36143   1.68061 
 S                    -3.29812   0.1011   -1.9412 
 N                    -3.70387   0.88023   0.51988 
 C                    -3.04877   1.13241  -0.5535 
 S                    -1.96109   2.55837  -0.70779 
 O                    -2.66064   3.70388  -0.14338 
 O                    -1.52107   2.54903  -2.0983 
 C                    -0.57926   2.15765   0.37778 
 C                     0.09847   3.46381   0.80542 
 H                     0.09587   1.51619  -0.19662 
 H                    -0.99789   1.61097   1.22969 
 C                     1.26059   3.20284   1.70986 
 H                     0.43916   4.00392  -0.08443 
 H                    -0.64886   4.0903    1.30951 
 C                     2.48435   3.79203   1.53278 
 H                     1.13271   2.45822   2.4947 
 H                     3.26519   3.67696   2.28077 
 H                     2.56917   4.67121   0.896 
 S                     3.47432   2.50366  -0.13703 
 C                     3.65963   0.92565   0.72374 
 O                     2.38716   2.31901  -1.11378 
 O                     4.80953   2.93978  -0.57911 
 C                     4.00094  -0.1834   -0.26621 
 H                     2.70208   0.74547   1.22044 
 H                     4.44135   1.06452   1.47586 
 H                     5.03322  -0.05549  -0.60401 
 C                     3.81258  -1.58194   0.36247 
 H                     3.35299  -0.09759  -1.14691 
 C                     2.33774  -1.82521   0.5537 
 C                     4.49068  -2.67789  -0.47174 
 H                     4.25173  -1.57924   1.36917 
 S                     1.40729  -2.71072  -0.66053 
 N                     1.6552   -1.3495    1.54085 
 H                     4.14336  -3.65846  -0.12194 
 H                     4.17075  -2.58831  -1.52042 
 C                     6.01769  -2.64966  -0.40278 
 C                    -0.02992  -2.40534   0.27162 
 C                     0.30875  -1.65838   1.41546 
 H                     6.39895  -1.69135  -0.77287 
 H                     6.32897  -2.72504   0.64686 
 C                     6.64272  -3.78564  -1.20914 
 C                    -1.34415  -2.81035   0.03025 
 C                    -0.68924  -1.28751   2.32543 
 H                     6.36221  -3.71478  -2.26503 
 H                     7.734    -3.76172  -1.14945 
 H                     6.30588  -4.75948  -0.83915 
 C                    -2.31683  -2.44795   0.94942 
 H                    -1.59839  -3.39439  -0.84836 
 C                    -1.99386  -1.68132   2.08189 
 H                    -0.41866  -0.70971   3.20353 
 H                    -3.34517  -2.75906   0.78977 
 H                    -2.78186  -1.40041   2.7737 
 
 Add virtual bond connecting atoms S28        and C24        Dist= 4.40D+00.

 GradGradGradGradGradGradGradGradGradGradGradGradGradGradGradGradGradGrad
 Berny optimization.
 Initialization pass.
                           ----------------------------
                           !    Initial Parameters    !
                           ! (Angstroms and Degrees)  !
 --------------------------                            --------------------------
 ! Name  Definition              Value          Derivative Info.                !
 --------------------------------------------------------------------------------
 ! R1    R(1,2)                  1.4012         calculate D2E/DX2 analytically  !
 ! R2    R(1,6)                  1.3829         calculate D2E/DX2 analytically  !
 ! R3    R(1,7)                  1.0849         calculate D2E/DX2 analytically  !
 ! R4    R(2,3)                  1.4106         calculate D2E/DX2 analytically  !
 ! R5    R(2,12)                 1.3844         calculate D2E/DX2 analytically  !
 ! R6    R(3,4)                  1.3981         calculate D2E/DX2 analytically  !
 ! R7    R(3,11)                 1.7389         calculate D2E/DX2 analytically  !
 ! R8    R(4,5)                  1.3858         calculate D2E/DX2 analytically  !
 ! R9    R(4,8)                  1.0849         calculate D2E/DX2 analytically  !
 ! R10   R(5,6)                  1.4077         calculate D2E/DX2 analytically  !
 ! R11   R(5,9)                  1.0852         calculate D2E/DX2 analytically  !
 ! R12   R(6,10)                 1.085          calculate D2E/DX2 analytically  !
 ! R13   R(11,13)                1.7468         calculate D2E/DX2 analytically  !
 ! R14   R(12,13)                1.2825         calculate D2E/DX2 analytically  !
 ! R15   R(13,14)                1.8001         calculate D2E/DX2 analytically  !
 ! R16   R(14,15)                1.4561         calculate D2E/DX2 analytically  !
 ! R17   R(14,16)                1.4585         calculate D2E/DX2 analytically  !
 ! R18   R(14,17)                1.8024         calculate D2E/DX2 analytically  !
 ! R19   R(17,18)                1.5324         calculate D2E/DX2 analytically  !
 ! R20   R(17,19)                1.0942         calculate D2E/DX2 analytically  !
 ! R21   R(17,20)                1.0954         calculate D2E/DX2 analytically  !
 ! R22   R(18,21)                1.4955         calculate D2E/DX2 analytically  !
 ! R23   R(18,22)                1.0953         calculate D2E/DX2 analytically  !
 ! R24   R(18,23)                1.0978         calculate D2E/DX2 analytically  !
 ! R25   R(21,24)                1.3697         calculate D2E/DX2 analytically  !
 ! R26   R(21,25)                1.0894         calculate D2E/DX2 analytically  !
 ! R27   R(24,26)                1.0874         calculate D2E/DX2 analytically  !
 ! R28   R(24,27)                1.0889         calculate D2E/DX2 analytically  !
 ! R29   R(24,28)                2.3298         calculate D2E/DX2 analytically  !
 ! R30   R(28,29)                1.807          calculate D2E/DX2 analytically  !
 ! R31   R(28,30)                1.4731         calculate D2E/DX2 analytically  !
 ! R32   R(28,31)                1.4726         calculate D2E/DX2 analytically  !
 ! R33   R(29,32)                1.5253         calculate D2E/DX2 analytically  !
 ! R34   R(29,33)                1.0937         calculate D2E/DX2 analytically  !
 ! R35   R(29,34)                1.0936         calculate D2E/DX2 analytically  !
 ! R36   R(32,35)                1.0937         calculate D2E/DX2 analytically  !
 ! R37   R(32,36)                1.5449         calculate D2E/DX2 analytically  !
 ! R38   R(32,37)                1.0967         calculate D2E/DX2 analytically  !
 ! R39   R(36,38)                1.5069         calculate D2E/DX2 analytically  !
 ! R40   R(36,39)                1.5352         calculate D2E/DX2 analytically  !
 ! R41   R(36,40)                1.0983         calculate D2E/DX2 analytically  !
 ! R42   R(38,41)                1.7675         calculate D2E/DX2 analytically  !
 ! R43   R(38,42)                1.291          calculate D2E/DX2 analytically  !
 ! R44   R(39,43)                1.0975         calculate D2E/DX2 analytically  !
 ! R45   R(39,44)                1.1001         calculate D2E/DX2 analytically  !
 ! R46   R(39,45)                1.5288         calculate D2E/DX2 analytically  !
 ! R47   R(41,46)                1.74           calculate D2E/DX2 analytically  !
 ! R48   R(42,47)                1.3871         calculate D2E/DX2 analytically  !
 ! R49   R(45,48)                1.0958         calculate D2E/DX2 analytically  !
 ! R50   R(45,49)                1.0974         calculate D2E/DX2 analytically  !
 ! R51   R(45,50)                1.5269         calculate D2E/DX2 analytically  !
 ! R52   R(46,47)                1.4075         calculate D2E/DX2 analytically  !
 ! R53   R(46,51)                1.3962         calculate D2E/DX2 analytically  !
 ! R54   R(47,52)                1.4006         calculate D2E/DX2 analytically  !
 ! R55   R(50,53)                1.0948         calculate D2E/DX2 analytically  !
 ! R56   R(50,54)                1.0932         calculate D2E/DX2 analytically  !
 ! R57   R(50,55)                1.0949         calculate D2E/DX2 analytically  !
 ! R58   R(51,56)                1.3865         calculate D2E/DX2 analytically  !
 ! R59   R(51,57)                1.0852         calculate D2E/DX2 analytically  !
 ! R60   R(52,58)                1.3844         calculate D2E/DX2 analytically  !
 ! R61   R(52,59)                1.0854         calculate D2E/DX2 analytically  !
 ! R62   R(56,58)                1.4052         calculate D2E/DX2 analytically  !
 ! R63   R(56,60)                1.0862         calculate D2E/DX2 analytically  !
 ! R64   R(58,61)                1.0856         calculate D2E/DX2 analytically  !
 ! A1    A(2,1,6)              118.6215         calculate D2E/DX2 analytically  !
 ! A2    A(2,1,7)              119.2303         calculate D2E/DX2 analytically  !
 ! A3    A(6,1,7)              122.1481         calculate D2E/DX2 analytically  !
 ! A4    A(1,2,3)              120.1905         calculate D2E/DX2 analytically  !
 ! A5    A(1,2,12)             124.917          calculate D2E/DX2 analytically  !
 ! A6    A(3,2,12)             114.8851         calculate D2E/DX2 analytically  !
 ! A7    A(2,3,4)              121.0623         calculate D2E/DX2 analytically  !
 ! A8    A(2,3,11)             109.9158         calculate D2E/DX2 analytically  !
 ! A9    A(4,3,11)             129.0062         calculate D2E/DX2 analytically  !
 ! A10   A(3,4,5)              117.9772         calculate D2E/DX2 analytically  !
 ! A11   A(3,4,8)              121.0498         calculate D2E/DX2 analytically  !
 ! A12   A(5,4,8)              120.973          calculate D2E/DX2 analytically  !
 ! A13   A(4,5,6)              121.2936         calculate D2E/DX2 analytically  !
 ! A14   A(4,5,9)              119.3161         calculate D2E/DX2 analytically  !
 ! A15   A(6,5,9)              119.3898         calculate D2E/DX2 analytically  !
 ! A16   A(1,6,5)              120.8504         calculate D2E/DX2 analytically  !
 ! A17   A(1,6,10)             119.8034         calculate D2E/DX2 analytically  !
 ! A18   A(5,6,10)             119.3458         calculate D2E/DX2 analytically  !
 ! A19   A(3,11,13)             87.3169         calculate D2E/DX2 analytically  !
 ! A20   A(2,12,13)            109.4662         calculate D2E/DX2 analytically  !
 ! A21   A(11,13,12)           118.4147         calculate D2E/DX2 analytically  !
 ! A22   A(11,13,14)           119.0681         calculate D2E/DX2 analytically  !
 ! A23   A(12,13,14)           122.4212         calculate D2E/DX2 analytically  !
 ! A24   A(13,14,15)           107.4386         calculate D2E/DX2 analytically  !
 ! A25   A(13,14,16)           105.0073         calculate D2E/DX2 analytically  !
 ! A26   A(13,14,17)           103.6219         calculate D2E/DX2 analytically  !
 ! A27   A(15,14,16)           121.3016         calculate D2E/DX2 analytically  !
 ! A28   A(15,14,17)           108.0461         calculate D2E/DX2 analytically  !
 ! A29   A(16,14,17)           109.9686         calculate D2E/DX2 analytically  !
 ! A30   A(14,17,18)           108.5212         calculate D2E/DX2 analytically  !
 ! A31   A(14,17,19)           106.6908         calculate D2E/DX2 analytically  !
 ! A32   A(14,17,20)           106.6412         calculate D2E/DX2 analytically  !
 ! A33   A(18,17,19)           111.9206         calculate D2E/DX2 analytically  !
 ! A34   A(18,17,20)           112.172          calculate D2E/DX2 analytically  !
 ! A35   A(19,17,20)           110.579          calculate D2E/DX2 analytically  !
 ! A36   A(17,18,21)           111.3277         calculate D2E/DX2 analytically  !
 ! A37   A(17,18,22)           109.3392         calculate D2E/DX2 analytically  !
 ! A38   A(17,18,23)           108.2707         calculate D2E/DX2 analytically  !
 ! A39   A(21,18,22)           109.6137         calculate D2E/DX2 analytically  !
 ! A40   A(21,18,23)           110.5413         calculate D2E/DX2 analytically  !
 ! A41   A(22,18,23)           107.6619         calculate D2E/DX2 analytically  !
 ! A42   A(18,21,24)           122.7528         calculate D2E/DX2 analytically  !
 ! A43   A(18,21,25)           117.6288         calculate D2E/DX2 analytically  !
 ! A44   A(24,21,25)           119.4747         calculate D2E/DX2 analytically  !
 ! A45   A(21,24,26)           120.4719         calculate D2E/DX2 analytically  !
 ! A46   A(21,24,27)           119.5064         calculate D2E/DX2 analytically  !
 ! A47   A(21,24,28)           103.5578         calculate D2E/DX2 analytically  !
 ! A48   A(26,24,27)           115.5804         calculate D2E/DX2 analytically  !
 ! A49   A(26,24,28)            97.4329         calculate D2E/DX2 analytically  !
 ! A50   A(27,24,28)            89.6714         calculate D2E/DX2 analytically  !
 ! A51   A(24,28,29)           100.6654         calculate D2E/DX2 analytically  !
 ! A52   A(24,28,30)           103.3527         calculate D2E/DX2 analytically  !
 ! A53   A(24,28,31)           115.8914         calculate D2E/DX2 analytically  !
 ! A54   A(29,28,30)           106.3834         calculate D2E/DX2 analytically  !
 ! A55   A(29,28,31)           107.9775         calculate D2E/DX2 analytically  !
 ! A56   A(30,28,31)           120.48           calculate D2E/DX2 analytically  !
 ! A57   A(28,29,32)           110.4106         calculate D2E/DX2 analytically  !
 ! A58   A(28,29,33)           105.6893         calculate D2E/DX2 analytically  !
 ! A59   A(28,29,34)           106.8584         calculate D2E/DX2 analytically  !
 ! A60   A(32,29,33)           111.7704         calculate D2E/DX2 analytically  !
 ! A61   A(32,29,34)           112.2552         calculate D2E/DX2 analytically  !
 ! A62   A(33,29,34)           109.5369         calculate D2E/DX2 analytically  !
 ! A63   A(29,32,35)           109.0648         calculate D2E/DX2 analytically  !
 ! A64   A(29,32,36)           111.5209         calculate D2E/DX2 analytically  !
 ! A65   A(29,32,37)           109.3957         calculate D2E/DX2 analytically  !
 ! A66   A(35,32,36)           110.2831         calculate D2E/DX2 analytically  !
 ! A67   A(35,32,37)           107.4849         calculate D2E/DX2 analytically  !
 ! A68   A(36,32,37)           109.0009         calculate D2E/DX2 analytically  !
 ! A69   A(32,36,38)           108.488          calculate D2E/DX2 analytically  !
 ! A70   A(32,36,39)           111.7943         calculate D2E/DX2 analytically  !
 ! A71   A(32,36,40)           108.7851         calculate D2E/DX2 analytically  !
 ! A72   A(38,36,39)           112.7065         calculate D2E/DX2 analytically  !
 ! A73   A(38,36,40)           105.9858         calculate D2E/DX2 analytically  !
 ! A74   A(39,36,40)           108.8571         calculate D2E/DX2 analytically  !
 ! A75   A(36,38,41)           120.5898         calculate D2E/DX2 analytically  !
 ! A76   A(36,38,42)           123.71           calculate D2E/DX2 analytically  !
 ! A77   A(41,38,42)           115.5674         calculate D2E/DX2 analytically  !
 ! A78   A(36,39,43)           108.9564         calculate D2E/DX2 analytically  !
 ! A79   A(36,39,44)           109.3548         calculate D2E/DX2 analytically  !
 ! A80   A(36,39,45)           113.7965         calculate D2E/DX2 analytically  !
 ! A81   A(43,39,44)           106.5321         calculate D2E/DX2 analytically  !
 ! A82   A(43,39,45)           108.5546         calculate D2E/DX2 analytically  !
 ! A83   A(44,39,45)           109.3894         calculate D2E/DX2 analytically  !
 ! A84   A(38,41,46)            88.789          calculate D2E/DX2 analytically  !
 ! A85   A(38,42,47)           111.2252         calculate D2E/DX2 analytically  !
 ! A86   A(39,45,48)           110.3922         calculate D2E/DX2 analytically  !
 ! A87   A(39,45,49)           108.9764         calculate D2E/DX2 analytically  !
 ! A88   A(39,45,50)           111.7964         calculate D2E/DX2 analytically  !
 ! A89   A(48,45,49)           106.5244         calculate D2E/DX2 analytically  !
 ! A90   A(48,45,50)           109.261          calculate D2E/DX2 analytically  !
 ! A91   A(49,45,50)           109.7495         calculate D2E/DX2 analytically  !
 ! A92   A(41,46,47)           109.2536         calculate D2E/DX2 analytically  !
 ! A93   A(41,46,51)           129.341          calculate D2E/DX2 analytically  !
 ! A94   A(47,46,51)           121.394          calculate D2E/DX2 analytically  !
 ! A95   A(42,47,46)           115.164          calculate D2E/DX2 analytically  !
 ! A96   A(42,47,52)           125.0285         calculate D2E/DX2 analytically  !
 ! A97   A(46,47,52)           119.8073         calculate D2E/DX2 analytically  !
 ! A98   A(45,50,53)           110.8729         calculate D2E/DX2 analytically  !
 ! A99   A(45,50,54)           111.3171         calculate D2E/DX2 analytically  !
 ! A100  A(45,50,55)           110.9374         calculate D2E/DX2 analytically  !
 ! A101  A(53,50,54)           107.8797         calculate D2E/DX2 analytically  !
 ! A102  A(53,50,55)           107.7381         calculate D2E/DX2 analytically  !
 ! A103  A(54,50,55)           107.947          calculate D2E/DX2 analytically  !
 ! A104  A(46,51,56)           118.029          calculate D2E/DX2 analytically  !
 ! A105  A(46,51,57)           121.1033         calculate D2E/DX2 analytically  !
 ! A106  A(56,51,57)           120.8674         calculate D2E/DX2 analytically  !
 ! A107  A(47,52,58)           118.8091         calculate D2E/DX2 analytically  !
 ! A108  A(47,52,59)           119.2712         calculate D2E/DX2 analytically  !
 ! A109  A(58,52,59)           121.917          calculate D2E/DX2 analytically  !
 ! A110  A(51,56,58)           121.0408         calculate D2E/DX2 analytically  !
 ! A111  A(51,56,60)           119.4646         calculate D2E/DX2 analytically  !
 ! A112  A(58,56,60)           119.4943         calculate D2E/DX2 analytically  !
 ! A113  A(52,58,56)           120.9033         calculate D2E/DX2 analytically  !
 ! A114  A(52,58,61)           119.8909         calculate D2E/DX2 analytically  !
 ! A115  A(56,58,61)           119.2053         calculate D2E/DX2 analytically  !
 ! D1    D(6,1,2,3)              0.7741         calculate D2E/DX2 analytically  !
 ! D2    D(6,1,2,12)          -178.1914         calculate D2E/DX2 analytically  !
 ! D3    D(7,1,2,3)           -179.3829         calculate D2E/DX2 analytically  !
 ! D4    D(7,1,2,12)             1.6516         calculate D2E/DX2 analytically  !
 ! D5    D(2,1,6,5)             -0.3758         calculate D2E/DX2 analytically  !
 ! D6    D(2,1,6,10)           179.8417         calculate D2E/DX2 analytically  !
 ! D7    D(7,1,6,5)            179.786          calculate D2E/DX2 analytically  !
 ! D8    D(7,1,6,10)             0.0035         calculate D2E/DX2 analytically  !
 ! D9    D(1,2,3,4)             -0.645          calculate D2E/DX2 analytically  !
 ! D10   D(1,2,3,11)          -179.3266         calculate D2E/DX2 analytically  !
 ! D11   D(12,2,3,4)           178.4199         calculate D2E/DX2 analytically  !
 ! D12   D(12,2,3,11)           -0.2616         calculate D2E/DX2 analytically  !
 ! D13   D(1,2,12,13)          179.3873         calculate D2E/DX2 analytically  !
 ! D14   D(3,2,12,13)            0.3729         calculate D2E/DX2 analytically  !
 ! D15   D(2,3,4,5)              0.0939         calculate D2E/DX2 analytically  !
 ! D16   D(2,3,4,8)           -179.8416         calculate D2E/DX2 analytically  !
 ! D17   D(11,3,4,5)           178.4986         calculate D2E/DX2 analytically  !
 ! D18   D(11,3,4,8)            -1.4369         calculate D2E/DX2 analytically  !
 ! D19   D(2,3,11,13)            0.0643         calculate D2E/DX2 analytically  !
 ! D20   D(4,3,11,13)         -178.4823         calculate D2E/DX2 analytically  !
 ! D21   D(3,4,5,6)              0.3127         calculate D2E/DX2 analytically  !
 ! D22   D(3,4,5,9)           -179.9549         calculate D2E/DX2 analytically  !
 ! D23   D(8,4,5,6)           -179.7517         calculate D2E/DX2 analytically  !
 ! D24   D(8,4,5,9)             -0.0194         calculate D2E/DX2 analytically  !
 ! D25   D(4,5,6,1)             -0.1735         calculate D2E/DX2 analytically  !
 ! D26   D(4,5,6,10)           179.6099         calculate D2E/DX2 analytically  !
 ! D27   D(9,5,6,1)           -179.9057         calculate D2E/DX2 analytically  !
 ! D28   D(9,5,6,10)            -0.1223         calculate D2E/DX2 analytically  !
 ! D29   D(3,11,13,12)           0.1601         calculate D2E/DX2 analytically  !
 ! D30   D(3,11,13,14)        -176.3661         calculate D2E/DX2 analytically  !
 ! D31   D(2,12,13,11)          -0.3296         calculate D2E/DX2 analytically  !
 ! D32   D(2,12,13,14)         176.0733         calculate D2E/DX2 analytically  !
 ! D33   D(11,13,14,15)        132.0226         calculate D2E/DX2 analytically  !
 ! D34   D(11,13,14,16)          1.6306         calculate D2E/DX2 analytically  !
 ! D35   D(11,13,14,17)       -113.7585         calculate D2E/DX2 analytically  !
 ! D36   D(12,13,14,15)        -44.3578         calculate D2E/DX2 analytically  !
 ! D37   D(12,13,14,16)       -174.7497         calculate D2E/DX2 analytically  !
 ! D38   D(12,13,14,17)         69.8612         calculate D2E/DX2 analytically  !
 ! D39   D(13,14,17,18)       -156.2862         calculate D2E/DX2 analytically  !
 ! D40   D(13,14,17,19)         82.9515         calculate D2E/DX2 analytically  !
 ! D41   D(13,14,17,20)        -35.2531         calculate D2E/DX2 analytically  !
 ! D42   D(15,14,17,18)        -42.5037         calculate D2E/DX2 analytically  !
 ! D43   D(15,14,17,19)       -163.2661         calculate D2E/DX2 analytically  !
 ! D44   D(15,14,17,20)         78.5293         calculate D2E/DX2 analytically  !
 ! D45   D(16,14,17,18)         91.9038         calculate D2E/DX2 analytically  !
 ! D46   D(16,14,17,19)        -28.8585         calculate D2E/DX2 analytically  !
 ! D47   D(16,14,17,20)       -147.0631         calculate D2E/DX2 analytically  !
 ! D48   D(14,17,18,21)       -179.8947         calculate D2E/DX2 analytically  !
 ! D49   D(14,17,18,22)        -58.6339         calculate D2E/DX2 analytically  !
 ! D50   D(14,17,18,23)         58.3979         calculate D2E/DX2 analytically  !
 ! D51   D(19,17,18,21)        -62.4229         calculate D2E/DX2 analytically  !
 ! D52   D(19,17,18,22)         58.8379         calculate D2E/DX2 analytically  !
 ! D53   D(19,17,18,23)        175.8697         calculate D2E/DX2 analytically  !
 ! D54   D(20,17,18,21)         62.5464         calculate D2E/DX2 analytically  !
 ! D55   D(20,17,18,22)       -176.1927         calculate D2E/DX2 analytically  !
 ! D56   D(20,17,18,23)        -59.161          calculate D2E/DX2 analytically  !
 ! D57   D(17,18,21,24)        132.4675         calculate D2E/DX2 analytically  !
 ! D58   D(17,18,21,25)        -43.1469         calculate D2E/DX2 analytically  !
 ! D59   D(22,18,21,24)         11.3671         calculate D2E/DX2 analytically  !
 ! D60   D(22,18,21,25)       -164.2473         calculate D2E/DX2 analytically  !
 ! D61   D(23,18,21,24)       -107.1542         calculate D2E/DX2 analytically  !
 ! D62   D(23,18,21,25)         77.2314         calculate D2E/DX2 analytically  !
 ! D63   D(18,21,24,26)        172.1695         calculate D2E/DX2 analytically  !
 ! D64   D(18,21,24,27)         16.8558         calculate D2E/DX2 analytically  !
 ! D65   D(18,21,24,28)        -80.5959         calculate D2E/DX2 analytically  !
 ! D66   D(25,21,24,26)        -12.2938         calculate D2E/DX2 analytically  !
 ! D67   D(25,21,24,27)       -167.6075         calculate D2E/DX2 analytically  !
 ! D68   D(25,21,24,28)         94.9408         calculate D2E/DX2 analytically  !
 ! D69   D(21,24,28,29)        -65.9731         calculate D2E/DX2 analytically  !
 ! D70   D(21,24,28,30)         43.8854         calculate D2E/DX2 analytically  !
 ! D71   D(21,24,28,31)        177.8896         calculate D2E/DX2 analytically  !
 ! D72   D(26,24,28,29)         57.9122         calculate D2E/DX2 analytically  !
 ! D73   D(26,24,28,30)        167.7707         calculate D2E/DX2 analytically  !
 ! D74   D(26,24,28,31)        -58.2251         calculate D2E/DX2 analytically  !
 ! D75   D(27,24,28,29)        173.6781         calculate D2E/DX2 analytically  !
 ! D76   D(27,24,28,30)        -76.4634         calculate D2E/DX2 analytically  !
 ! D77   D(27,24,28,31)         57.5408         calculate D2E/DX2 analytically  !
 ! D78   D(24,28,29,32)        167.0988         calculate D2E/DX2 analytically  !
 ! D79   D(24,28,29,33)         46.0634         calculate D2E/DX2 analytically  !
 ! D80   D(24,28,29,34)        -70.5566         calculate D2E/DX2 analytically  !
 ! D81   D(30,28,29,32)         59.622          calculate D2E/DX2 analytically  !
 ! D82   D(30,28,29,33)        -61.4134         calculate D2E/DX2 analytically  !
 ! D83   D(30,28,29,34)       -178.0334         calculate D2E/DX2 analytically  !
 ! D84   D(31,28,29,32)        -71.0133         calculate D2E/DX2 analytically  !
 ! D85   D(31,28,29,33)        167.9514         calculate D2E/DX2 analytically  !
 ! D86   D(31,28,29,34)         51.3314         calculate D2E/DX2 analytically  !
 ! D87   D(28,29,32,35)         72.499          calculate D2E/DX2 analytically  !
 ! D88   D(28,29,32,36)       -165.459          calculate D2E/DX2 analytically  !
 ! D89   D(28,29,32,37)        -44.8036         calculate D2E/DX2 analytically  !
 ! D90   D(33,29,32,35)       -170.1588         calculate D2E/DX2 analytically  !
 ! D91   D(33,29,32,36)        -48.1167         calculate D2E/DX2 analytically  !
 ! D92   D(33,29,32,37)         72.5386         calculate D2E/DX2 analytically  !
 ! D93   D(34,29,32,35)        -46.6193         calculate D2E/DX2 analytically  !
 ! D94   D(34,29,32,36)         75.4228         calculate D2E/DX2 analytically  !
 ! D95   D(34,29,32,37)       -163.9219         calculate D2E/DX2 analytically  !
 ! D96   D(29,32,36,38)         70.0997         calculate D2E/DX2 analytically  !
 ! D97   D(29,32,36,39)       -165.0073         calculate D2E/DX2 analytically  !
 ! D98   D(29,32,36,40)        -44.7635         calculate D2E/DX2 analytically  !
 ! D99   D(35,32,36,38)       -168.5638         calculate D2E/DX2 analytically  !
 ! D100  D(35,32,36,39)        -43.6708         calculate D2E/DX2 analytically  !
 ! D101  D(35,32,36,40)         76.573          calculate D2E/DX2 analytically  !
 ! D102  D(37,32,36,38)        -50.7865         calculate D2E/DX2 analytically  !
 ! D103  D(37,32,36,39)         74.1065         calculate D2E/DX2 analytically  !
 ! D104  D(37,32,36,40)       -165.6497         calculate D2E/DX2 analytically  !
 ! D105  D(32,36,38,41)         95.3971         calculate D2E/DX2 analytically  !
 ! D106  D(32,36,38,42)        -80.2254         calculate D2E/DX2 analytically  !
 ! D107  D(39,36,38,41)        -28.9554         calculate D2E/DX2 analytically  !
 ! D108  D(39,36,38,42)        155.4222         calculate D2E/DX2 analytically  !
 ! D109  D(40,36,38,41)       -147.9241         calculate D2E/DX2 analytically  !
 ! D110  D(40,36,38,42)         36.4534         calculate D2E/DX2 analytically  !
 ! D111  D(32,36,39,43)       -167.2488         calculate D2E/DX2 analytically  !
 ! D112  D(32,36,39,44)        -51.1739         calculate D2E/DX2 analytically  !
 ! D113  D(32,36,39,45)         71.4737         calculate D2E/DX2 analytically  !
 ! D114  D(38,36,39,43)        -44.7333         calculate D2E/DX2 analytically  !
 ! D115  D(38,36,39,44)         71.3415         calculate D2E/DX2 analytically  !
 ! D116  D(38,36,39,45)       -166.0109         calculate D2E/DX2 analytically  !
 ! D117  D(40,36,39,43)         72.5495         calculate D2E/DX2 analytically  !
 ! D118  D(40,36,39,44)       -171.3756         calculate D2E/DX2 analytically  !
 ! D119  D(40,36,39,45)        -48.728          calculate D2E/DX2 analytically  !
 ! D120  D(36,38,41,46)       -176.2235         calculate D2E/DX2 analytically  !
 ! D121  D(42,38,41,46)         -0.2596         calculate D2E/DX2 analytically  !
 ! D122  D(36,38,42,47)        176.02           calculate D2E/DX2 analytically  !
 ! D123  D(41,38,42,47)          0.197          calculate D2E/DX2 analytically  !
 ! D124  D(36,39,45,48)        -60.0856         calculate D2E/DX2 analytically  !
 ! D125  D(36,39,45,49)         56.5753         calculate D2E/DX2 analytically  !
 ! D126  D(36,39,45,50)        178.0654         calculate D2E/DX2 analytically  !
 ! D127  D(43,39,45,48)        178.4132         calculate D2E/DX2 analytically  !
 ! D128  D(43,39,45,49)        -64.9259         calculate D2E/DX2 analytically  !
 ! D129  D(43,39,45,50)         56.5642         calculate D2E/DX2 analytically  !
 ! D130  D(44,39,45,48)         62.543          calculate D2E/DX2 analytically  !
 ! D131  D(44,39,45,49)        179.2039         calculate D2E/DX2 analytically  !
 ! D132  D(44,39,45,50)        -59.306          calculate D2E/DX2 analytically  !
 ! D133  D(38,41,46,47)          0.2334         calculate D2E/DX2 analytically  !
 ! D134  D(38,41,46,51)       -178.5362         calculate D2E/DX2 analytically  !
 ! D135  D(38,42,47,46)         -0.003          calculate D2E/DX2 analytically  !
 ! D136  D(38,42,47,52)        179.8429         calculate D2E/DX2 analytically  !
 ! D137  D(39,45,50,53)         60.2492         calculate D2E/DX2 analytically  !
 ! D138  D(39,45,50,54)       -179.6504         calculate D2E/DX2 analytically  !
 ! D139  D(39,45,50,55)        -59.4214         calculate D2E/DX2 analytically  !
 ! D140  D(48,45,50,53)        -62.2481         calculate D2E/DX2 analytically  !
 ! D141  D(48,45,50,54)         57.8523         calculate D2E/DX2 analytically  !
 ! D142  D(48,45,50,55)        178.0813         calculate D2E/DX2 analytically  !
 ! D143  D(49,45,50,53)       -178.7081         calculate D2E/DX2 analytically  !
 ! D144  D(49,45,50,54)        -58.6077         calculate D2E/DX2 analytically  !
 ! D145  D(49,45,50,55)         61.6213         calculate D2E/DX2 analytically  !
 ! D146  D(41,46,47,42)         -0.1867         calculate D2E/DX2 analytically  !
 ! D147  D(41,46,47,52)        179.9588         calculate D2E/DX2 analytically  !
 ! D148  D(51,46,47,42)        178.6985         calculate D2E/DX2 analytically  !
 ! D149  D(51,46,47,52)         -1.156          calculate D2E/DX2 analytically  !
 ! D150  D(41,46,51,56)        179.0346         calculate D2E/DX2 analytically  !
 ! D151  D(41,46,51,57)         -0.7623         calculate D2E/DX2 analytically  !
 ! D152  D(47,46,51,56)          0.3955         calculate D2E/DX2 analytically  !
 ! D153  D(47,46,51,57)       -179.4014         calculate D2E/DX2 analytically  !
 ! D154  D(42,47,52,58)       -179.1368         calculate D2E/DX2 analytically  !
 ! D155  D(42,47,52,59)          0.2901         calculate D2E/DX2 analytically  !
 ! D156  D(46,47,52,58)          0.7025         calculate D2E/DX2 analytically  !
 ! D157  D(46,47,52,59)       -179.8706         calculate D2E/DX2 analytically  !
 ! D158  D(46,51,56,58)          0.796          calculate D2E/DX2 analytically  !
 ! D159  D(46,51,56,60)       -179.3956         calculate D2E/DX2 analytically  !
 ! D160  D(57,51,56,58)       -179.4066         calculate D2E/DX2 analytically  !
 ! D161  D(57,51,56,60)          0.4018         calculate D2E/DX2 analytically  !
 ! D162  D(47,52,58,56)          0.4722         calculate D2E/DX2 analytically  !
 ! D163  D(47,52,58,61)       -179.7724         calculate D2E/DX2 analytically  !
 ! D164  D(59,52,58,56)       -178.9389         calculate D2E/DX2 analytically  !
 ! D165  D(59,52,58,61)          0.8165         calculate D2E/DX2 analytically  !
 ! D166  D(51,56,58,52)         -1.2515         calculate D2E/DX2 analytically  !
 ! D167  D(51,56,58,61)        178.9914         calculate D2E/DX2 analytically  !
 ! D168  D(60,56,58,52)        178.9402         calculate D2E/DX2 analytically  !
 ! D169  D(60,56,58,61)         -0.8169         calculate D2E/DX2 analytically  !
 --------------------------------------------------------------------------------
 Trust Radius=3.00D-01 FncErr=1.00D-07 GrdErr=1.00D-06 EigMax=2.50D+02 EigMin=1.00D-04
 Number of steps in this run=    358 maximum allowed number of steps=    366.
 Search for a saddle point of order  1.
 GradGradGradGradGradGradGradGradGradGradGradGradGradGradGradGradGradGrad

 Stoichiometry    C24H27N2O4S4(2)
 Framework group  C1[X(C24H27N2O4S4)]
 Deg. of freedom   177
 Full point group                 C1      NOp   1
 Largest Abelian subgroup         C1      NOp   1
 Largest concise Abelian subgroup C1      NOp   1
                         Standard orientation:                         
 ---------------------------------------------------------------------
 Center     Atomic      Atomic             Coordinates (Angstroms)
 Number     Number       Type             X           Y           Z
 ---------------------------------------------------------------------
      1          6           0       -5.363727   -0.782950    1.280968
      2          6           0       -4.517634   -0.221009    0.315752
      3          6           0       -4.433025   -0.791098   -0.971734
      4          6           0       -5.174507   -1.927787   -1.307479
      5          6           0       -5.997462   -2.477121   -0.337242
      6          6           0       -6.093694   -1.909031    0.947124
      7          1           0       -5.424344   -0.325847    2.263048
      8          1           0       -5.107345   -2.367581   -2.296979
      9          1           0       -6.582228   -3.360099   -0.574225
     10          1           0       -6.752836   -2.361434    1.680612
     11         16           0       -3.298124    0.101100   -1.941199
     12          7           0       -3.703873    0.880227    0.519876
     13          6           0       -3.048767    1.132407   -0.553503
     14         16           0       -1.961086    2.558370   -0.707792
     15          8           0       -2.660644    3.703880   -0.143376
     16          8           0       -1.521070    2.549032   -2.098296
     17          6           0       -0.579257    2.157654    0.377781
     18          6           0        0.098467    3.463808    0.805423
     19          1           0        0.095865    1.516188   -0.196619
     20          1           0       -0.997894    1.610965    1.229689
     21          6           0        1.260586    3.202844    1.709860
     22          1           0        0.439156    4.003916   -0.084434
     23          1           0       -0.648864    4.090305    1.309511
     24          6           0        2.484351    3.792028    1.532775
     25          1           0        1.132706    2.458215    2.494698
     26          1           0        3.265190    3.676958    2.280766
     27          1           0        2.569169    4.671211    0.896000
     28         16           0        3.474319    2.503663   -0.137034
     29          6           0        3.659632    0.925652    0.723740
     30          8           0        2.387163    2.319013   -1.113780
     31          8           0        4.809534    2.939778   -0.579114
     32          6           0        4.000939   -0.183403   -0.266208
     33          1           0        2.702076    0.745469    1.220438
     34          1           0        4.441351    1.064523    1.475863
     35          1           0        5.033220   -0.055493   -0.604013
     36          6           0        3.812579   -1.581942    0.362470
     37          1           0        3.352994   -0.097592   -1.146910
     38          6           0        2.337743   -1.825205    0.553703
     39          6           0        4.490682   -2.677885   -0.471738
     40          1           0        4.251726   -1.579238    1.369169
     41         16           0        1.407292   -2.710721   -0.660525
     42          7           0        1.655201   -1.349503    1.540846
     43          1           0        4.143363   -3.658458   -0.121942
     44          1           0        4.170746   -2.588307   -1.520417
     45          6           0        6.017693   -2.649657   -0.402781
     46          6           0       -0.029923   -2.405337    0.271619
     47          6           0        0.308751   -1.658380    1.415458
     48          1           0        6.398955   -1.691346   -0.772870
     49          1           0        6.328966   -2.725036    0.646859
     50          6           0        6.642722   -3.785641   -1.209139
     51          6           0       -1.344146   -2.810349    0.030253
     52          6           0       -0.689241   -1.287514    2.325431
     53          1           0        6.362214   -3.714776   -2.265025
     54          1           0        7.734003   -3.761722   -1.149448
     55          1           0        6.305878   -4.759475   -0.839150
     56          6           0       -2.316829   -2.447947    0.949420
     57          1           0       -1.598385   -3.394386   -0.848360
     58          6           0       -1.993859   -1.681319    2.081885
     59          1           0       -0.418657   -0.709705    3.203526
     60          1           0       -3.345172   -2.759055    0.789765
     61          1           0       -2.781856   -1.400410    2.773698
 ---------------------------------------------------------------------
 Rotational constants (GHZ):           0.1423298           0.0707949           0.0541458
 Standard basis: 6-31G(d) (6D, 7F)
 There are   580 symmetry adapted cartesian basis functions of A   symmetry.
 There are   580 symmetry adapted basis functions of A   symmetry.
   580 basis functions,  1156 primitive gaussians,   580 cartesian basis functions
   141 alpha electrons      140 beta electrons
       nuclear repulsion energy      4552.4052636823 Hartrees.
 NAtoms=   61 NActive=   61 NUniq=   61 SFac= 1.00D+00 NAtFMM=   60 NAOKFM=T Big=T
 Integral buffers will be    131072 words long.
 Raffenetti 2 integral format.
 Two-electron integral symmetry is turned on.
 One-electron integrals computed using PRISM.
 NBasis=   580 RedAO= T EigKep=  4.37D-04  NBF=   580
 NBsUse=   580 1.00D-06 EigRej= -1.00D+00 NBFU=   580
 ExpMin= 1.17D-01 ExpMax= 2.19D+04 ExpMxC= 3.30D+03 IAcc=3 IRadAn=         5 AccDes= 0.00D+00
 Harris functional with IExCor= 1009 and IRadAn=       5 diagonalized for initial guess.
 HarFok:  IExCor= 1009 AccDes= 0.00D+00 IRadAn=         5 IDoV= 1 UseB2=F ITyADJ=14
 ICtDFT=  3500011 ScaDFX=  1.000000  1.000000  1.000000  1.000000
 FoFCou: FMM=F IPFlag=           0 FMFlag=      100000 FMFlg1=        2001
         NFxFlg=           0 DoJE=T BraDBF=F KetDBF=T FulRan=T
         wScrn=  0.000000 ICntrl=       500 IOpCl=  0 I1Cent=   200000004 NGrid=           0
         NMat0=    1 NMatS0=      1 NMatT0=    0 NMatD0=    1 NMtDS0=    0 NMtDT0=    0
 Petite list used in FoFCou.
 Initial guess <Sx>= 0.0000 <Sy>= 0.0000 <Sz>= 0.5000 <S**2>= 0.7500 S= 0.5000
 Requested convergence on RMS density matrix=1.00D-08 within 128 cycles.
 Requested convergence on MAX density matrix=1.00D-06.
 Requested convergence on             energy=1.00D-06.
 No special actions if energy rises.
 Integral accuracy reduced to 1.0D-05 until final iterations.
 Initial convergence to 1.0D-05 achieved.  Increase integral accuracy.
 SCF Done:  E(UM062X) =  -2933.10488741     A.U. after   18 cycles
            NFock= 18  Conv=0.86D-08     -V/T= 2.0055
 <Sx>= 0.0000 <Sy>= 0.0000 <Sz>= 0.5000 <S**2>= 0.7770 S= 0.5134
 <L.S>=  0.00000000000    
 Annihilation of the first spin contaminant:
 S**2 before annihilation     0.7770,   after     0.7502
 DoSCS=F DFT=T ScalE2(SS,OS)=  1.000000  1.000000
 Range of M.O.s used for correlation:     1   580
 NBasis=   580 NAE=   141 NBE=   140 NFC=     0 NFV=     0
 NROrb=    580 NOA=   141 NOB=   140 NVA=   439 NVB=   440
 Symmetrizing basis deriv contribution to polar:
 IMax=3 JMax=2 DiffMx= 0.00D+00
 G2DrvN: will do    62 centers at a time, making    1 passes.
 Calling FoFCou, ICntrl=  3107 FMM=T I1Cent=   0 AccDes= 0.00D+00.
 End of G2Drv F.D. properties file   721 does not exist.
 End of G2Drv F.D. properties file   722 does not exist.
 End of G2Drv F.D. properties file   788 does not exist.
          IDoAtm=11111111111111111111111111111111111111111111111111
          IDoAtm=11111111111
          Differentiating once with respect to nuclear coordinates.
 CalDSu exits because no D1Ps are significant.
          There are   186 degrees of freedom in the 1st order CPHF.  IDoFFX=6 NUNeed=     0.
    180 vectors produced by pass  0 Test12= 1.23D-13 1.00D-09 XBig12= 4.20D-01 1.57D-01.
 AX will form    90 AO Fock derivatives at one time.
    180 vectors produced by pass  1 Test12= 1.23D-13 1.00D-09 XBig12= 4.71D-02 3.75D-02.
    180 vectors produced by pass  2 Test12= 1.23D-13 1.00D-09 XBig12= 1.38D-03 7.07D-03.
    180 vectors produced by pass  3 Test12= 1.23D-13 1.00D-09 XBig12= 2.03D-05 5.37D-04.
    180 vectors produced by pass  4 Test12= 1.23D-13 1.00D-09 XBig12= 1.67D-07 3.00D-05.
    180 vectors produced by pass  5 Test12= 1.23D-13 1.00D-09 XBig12= 1.32D-09 2.23D-06.
    159 vectors produced by pass  6 Test12= 1.23D-13 1.00D-09 XBig12= 8.77D-12 2.29D-07.
     64 vectors produced by pass  7 Test12= 1.23D-13 1.00D-09 XBig12= 5.43D-14 1.17D-08.
      1 vectors produced by pass  8 Test12= 1.23D-13 1.00D-09 XBig12= 1.20D-16 1.20D-09.
 InvSVY:  IOpt=1 It=  1 EMax= 8.33D-16
 Solved reduced A of dimension  1304 with   186 vectors.
 End of Minotr F.D. properties file   721 does not exist.
 End of Minotr F.D. properties file   722 does not exist.
 End of Minotr F.D. properties file   788 does not exist.

 **********************************************************************

            Population analysis using the SCF Density.

 **********************************************************************

 Orbital symmetries:
 Alpha Orbitals:
       Occupied  (A) (A) (A) (A) (A) (A) (A) (A) (A) (A) (A) (A)
                 (A) (A) (A) (A) (A) (A) (A) (A) (A) (A) (A) (A)
                 (A) (A) (A) (A) (A) (A) (A) (A) (A) (A) (A) (A)
                 (A) (A) (A) (A) (A) (A) (A) (A) (A) (A) (A) (A)
                 (A) (A) (A) (A) (A) (A) (A) (A) (A) (A) (A) (A)
                 (A) (A) (A) (A) (A) (A) (A) (A) (A) (A) (A) (A)
                 (A) (A) (A) (A) (A) (A) (A) (A) (A) (A) (A) (A)
                 (A) (A) (A) (A) (A) (A) (A) (A) (A) (A) (A) (A)
                 (A) (A) (A) (A) (A) (A) (A) (A) (A) (A) (A) (A)
                 (A) (A) (A) (A) (A) (A) (A) (A) (A) (A) (A) (A)
                 (A) (A) (A) (A) (A) (A) (A) (A) (A) (A) (A) (A)
                 (A) (A) (A) (A) (A) (A) (A) (A) (A)
       Virtual   (A) (A) (A) (A) (A) (A) (A) (A) (A) (A) (A) (A)
                 (A) (A) (A) (A) (A) (A) (A) (A) (A) (A) (A) (A)
                 (A) (A) (A) (A) (A) (A) (A) (A) (A) (A) (A) (A)
                 (A) (A) (A) (A) (A) (A) (A) (A) (A) (A) (A) (A)
                 (A) (A) (A) (A) (A) (A) (A) (A) (A) (A) (A) (A)
                 (A) (A) (A) (A) (A) (A) (A) (A) (A) (A) (A) (A)
                 (A) (A) (A) (A) (A) (A) (A) (A) (A) (A) (A) (A)
                 (A) (A) (A) (A) (A) (A) (A) (A) (A) (A) (A) (A)
                 (A) (A) (A) (A) (A) (A) (A) (A) (A) (A) (A) (A)
                 (A) (A) (A) (A) (A) (A) (A) (A) (A) (A) (A) (A)
                 (A) (A) (A) (A) (A) (A) (A) (A) (A) (A) (A) (A)
                 (A) (A) (A) (A) (A) (A) (A) (A) (A) (A) (A) (A)
                 (A) (A) (A) (A) (A) (A) (A) (A) (A) (A) (A) (A)
                 (A) (A) (A) (A) (A) (A) (A) (A) (A) (A) (A) (A)
                 (A) (A) (A) (A) (A) (A) (A) (A) (A) (A) (A) (A)
                 (A) (A) (A) (A) (A) (A) (A) (A) (A) (A) (A) (A)
                 (A) (A) (A) (A) (A) (A) (A) (A) (A) (A) (A) (A)
                 (A) (A) (A) (A) (A) (A) (A) (A) (A) (A) (A) (A)
                 (A) (A) (A) (A) (A) (A) (A) (A) (A) (A) (A) (A)
                 (A) (A) (A) (A) (A) (A) (A) (A) (A) (A) (A) (A)
                 (A) (A) (A) (A) (A) (A) (A) (A) (A) (A) (A) (A)
                 (A) (A) (A) (A) (A) (A) (A) (A) (A) (A) (A) (A)
                 (A) (A) (A) (A) (A) (A) (A) (A) (A) (A) (A) (A)
                 (A) (A) (A) (A) (A) (A) (A) (A) (A) (A) (A) (A)
                 (A) (A) (A) (A) (A) (A) (A) (A) (A) (A) (A) (A)
                 (A) (A) (A) (A) (A) (A) (A) (A) (A) (A) (A) (A)
                 (A) (A) (A) (A) (A) (A) (A) (A) (A) (A) (A) (A)
                 (A) (A) (A) (A) (A) (A) (A) (A) (A) (A) (A) (A)
                 (A) (A) (A) (A) (A) (A) (A) (A) (A) (A) (A) (A)
                 (A) (A) (A) (A) (A) (A) (A) (A) (A) (A) (A) (A)
                 (A) (A) (A) (A) (A) (A) (A) (A) (A) (A) (A) (A)
                 (A) (A) (A) (A) (A) (A) (A) (A) (A) (A) (A) (A)
                 (A) (A) (A) (A) (A) (A) (A) (A) (A) (A) (A) (A)
                 (A) (A) (A) (A) (A) (A) (A) (A) (A) (A) (A) (A)
                 (A) (A) (A) (A) (A) (A) (A) (A) (A) (A) (A) (A)
                 (A) (A) (A) (A) (A) (A) (A) (A) (A) (A) (A) (A)
                 (A) (A) (A) (A) (A) (A) (A)
 Beta  Orbitals:
       Occupied  (A) (A) (A) (A) (A) (A) (A) (A) (A) (A) (A) (A)
                 (A) (A) (A) (A) (A) (A) (A) (A) (A) (A) (A) (A)
                 (A) (A) (A) (A) (A) (A) (A) (A) (A) (A) (A) (A)
                 (A) (A) (A) (A) (A) (A) (A) (A) (A) (A) (A) (A)
                 (A) (A) (A) (A) (A) (A) (A) (A) (A) (A) (A) (A)
                 (A) (A) (A) (A) (A) (A) (A) (A) (A) (A) (A) (A)
                 (A) (A) (A) (A) (A) (A) (A) (A) (A) (A) (A) (A)
                 (A) (A) (A) (A) (A) (A) (A) (A) (A) (A) (A) (A)
                 (A) (A) (A) (A) (A) (A) (A) (A) (A) (A) (A) (A)
                 (A) (A) (A) (A) (A) (A) (A) (A) (A) (A) (A) (A)
                 (A) (A) (A) (A) (A) (A) (A) (A) (A) (A) (A) (A)
                 (A) (A) (A) (A) (A) (A) (A) (A)
       Virtual   (A) (A) (A) (A) (A) (A) (A) (A) (A) (A) (A) (A)
                 (A) (A) (A) (A) (A) (A) (A) (A) (A) (A) (A) (A)
                 (A) (A) (A) (A) (A) (A) (A) (A) (A) (A) (A) (A)
                 (A) (A) (A) (A) (A) (A) (A) (A) (A) (A) (A) (A)
                 (A) (A) (A) (A) (A) (A) (A) (A) (A) (A) (A) (A)
                 (A) (A) (A) (A) (A) (A) (A) (A) (A) (A) (A) (A)
                 (A) (A) (A) (A) (A) (A) (A) (A) (A) (A) (A) (A)
                 (A) (A) (A) (A) (A) (A) (A) (A) (A) (A) (A) (A)
                 (A) (A) (A) (A) (A) (A) (A) (A) (A) (A) (A) (A)
                 (A) (A) (A) (A) (A) (A) (A) (A) (A) (A) (A) (A)
                 (A) (A) (A) (A) (A) (A) (A) (A) (A) (A) (A) (A)
                 (A) (A) (A) (A) (A) (A) (A) (A) (A) (A) (A) (A)
                 (A) (A) (A) (A) (A) (A) (A) (A) (A) (A) (A) (A)
                 (A) (A) (A) (A) (A) (A) (A) (A) (A) (A) (A) (A)
                 (A) (A) (A) (A) (A) (A) (A) (A) (A) (A) (A) (A)
                 (A) (A) (A) (A) (A) (A) (A) (A) (A) (A) (A) (A)
                 (A) (A) (A) (A) (A) (A) (A) (A) (A) (A) (A) (A)
                 (A) (A) (A) (A) (A) (A) (A) (A) (A) (A) (A) (A)
                 (A) (A) (A) (A) (A) (A) (A) (A) (A) (A) (A) (A)
                 (A) (A) (A) (A) (A) (A) (A) (A) (A) (A) (A) (A)
                 (A) (A) (A) (A) (A) (A) (A) (A) (A) (A) (A) (A)
                 (A) (A) (A) (A) (A) (A) (A) (A) (A) (A) (A) (A)
                 (A) (A) (A) (A) (A) (A) (A) (A) (A) (A) (A) (A)
                 (A) (A) (A) (A) (A) (A) (A) (A) (A) (A) (A) (A)
                 (A) (A) (A) (A) (A) (A) (A) (A) (A) (A) (A) (A)
                 (A) (A) (A) (A) (A) (A) (A) (A) (A) (A) (A) (A)
                 (A) (A) (A) (A) (A) (A) (A) (A) (A) (A) (A) (A)
                 (A) (A) (A) (A) (A) (A) (A) (A) (A) (A) (A) (A)
                 (A) (A) (A) (A) (A) (A) (A) (A) (A) (A) (A) (A)
                 (A) (A) (A) (A) (A) (A) (A) (A) (A) (A) (A) (A)
                 (A) (A) (A) (A) (A) (A) (A) (A) (A) (A) (A) (A)
                 (A) (A) (A) (A) (A) (A) (A) (A) (A) (A) (A) (A)
                 (A) (A) (A) (A) (A) (A) (A) (A) (A) (A) (A) (A)
                 (A) (A) (A) (A) (A) (A) (A) (A) (A) (A) (A) (A)
                 (A) (A) (A) (A) (A) (A) (A) (A) (A) (A) (A) (A)
                 (A) (A) (A) (A) (A) (A) (A) (A) (A) (A) (A) (A)
                 (A) (A) (A) (A) (A) (A) (A) (A)
 The electronic state is 2-A.
 Alpha  occ. eigenvalues --  -90.14287 -90.10483 -89.97856 -89.96260 -19.64295
 Alpha  occ. eigenvalues --  -19.63643 -19.63593 -19.63494 -14.79533 -14.77655
 Alpha  occ. eigenvalues --  -10.64974 -10.63616 -10.60848 -10.60715 -10.59717
 Alpha  occ. eigenvalues --  -10.59574 -10.59072 -10.58956 -10.58568 -10.58471
 Alpha  occ. eigenvalues --  -10.58371 -10.58363 -10.57836 -10.57673 -10.57504
 Alpha  occ. eigenvalues --  -10.57352 -10.57303 -10.57100 -10.56671 -10.56466
 Alpha  occ. eigenvalues --  -10.56394 -10.56193 -10.55522 -10.54232  -8.45746
 Alpha  occ. eigenvalues --   -8.42497  -8.32367  -8.30873  -6.37891  -6.37874
 Alpha  occ. eigenvalues --   -6.37793  -6.34740  -6.34499  -6.34394  -6.24351
 Alpha  occ. eigenvalues --   -6.24138  -6.23873  -6.22864  -6.22657  -6.22390
 Alpha  occ. eigenvalues --   -1.22959  -1.21438  -1.12109  -1.11577  -1.10479
 Alpha  occ. eigenvalues --   -1.08996  -0.97763  -0.97020  -0.94627  -0.93929
 Alpha  occ. eigenvalues --   -0.92001  -0.90670  -0.89825  -0.88442  -0.86543
 Alpha  occ. eigenvalues --   -0.86033  -0.84815  -0.84444  -0.81888  -0.79577
 Alpha  occ. eigenvalues --   -0.77346  -0.74445  -0.73637  -0.70182  -0.69961
 Alpha  occ. eigenvalues --   -0.69890  -0.69113  -0.68439  -0.67135  -0.66383
 Alpha  occ. eigenvalues --   -0.65077  -0.64331  -0.59993  -0.58530  -0.58233
 Alpha  occ. eigenvalues --   -0.57847  -0.57669  -0.57369  -0.57185  -0.56897
 Alpha  occ. eigenvalues --   -0.56340  -0.55565  -0.54811  -0.54480  -0.53693
 Alpha  occ. eigenvalues --   -0.52924  -0.52493  -0.52417  -0.51973  -0.51617
 Alpha  occ. eigenvalues --   -0.51106  -0.50665  -0.50450  -0.49721  -0.48759
 Alpha  occ. eigenvalues --   -0.48433  -0.47963  -0.47110  -0.46735  -0.46504
 Alpha  occ. eigenvalues --   -0.44948  -0.44773  -0.44352  -0.44073  -0.43899
 Alpha  occ. eigenvalues --   -0.43477  -0.42937  -0.42181  -0.42001  -0.41341
 Alpha  occ. eigenvalues --   -0.41151  -0.40493  -0.40274  -0.39977  -0.39908
 Alpha  occ. eigenvalues --   -0.39606  -0.39290  -0.38770  -0.38231  -0.38063
 Alpha  occ. eigenvalues --   -0.37432  -0.37191  -0.36801  -0.35875  -0.34758
 Alpha  occ. eigenvalues --   -0.34368  -0.31473  -0.30351  -0.29423  -0.29231
 Alpha  occ. eigenvalues --   -0.25109
 Alpha virt. eigenvalues --   -0.03432  -0.00952   0.00786   0.02057   0.03586
 Alpha virt. eigenvalues --    0.04144   0.04396   0.04651   0.06589   0.08732
 Alpha virt. eigenvalues --    0.09674   0.11049   0.11412   0.12335   0.12703
 Alpha virt. eigenvalues --    0.12836   0.13292   0.13775   0.14088   0.14324
 Alpha virt. eigenvalues --    0.14722   0.14823   0.15463   0.15645   0.16270
 Alpha virt. eigenvalues --    0.16648   0.17250   0.17264   0.17660   0.18057
 Alpha virt. eigenvalues --    0.18396   0.19388   0.19543   0.19764   0.20288
 Alpha virt. eigenvalues --    0.20663   0.20752   0.20900   0.21039   0.21482
 Alpha virt. eigenvalues --    0.21974   0.22115   0.22492   0.23222   0.23641
 Alpha virt. eigenvalues --    0.24284   0.24594   0.24977   0.25119   0.26250
 Alpha virt. eigenvalues --    0.26486   0.27267   0.27732   0.28325   0.28645
 Alpha virt. eigenvalues --    0.28838   0.30111   0.30286   0.31188   0.31914
 Alpha virt. eigenvalues --    0.32865   0.33156   0.34292   0.34680   0.36180
 Alpha virt. eigenvalues --    0.36515   0.37054   0.38225   0.38914   0.40258
 Alpha virt. eigenvalues --    0.40497   0.40997   0.41404   0.42008   0.42680
 Alpha virt. eigenvalues --    0.43552   0.44024   0.44942   0.45933   0.47141
 Alpha virt. eigenvalues --    0.48139   0.48851   0.49760   0.50408   0.50783
 Alpha virt. eigenvalues --    0.51869   0.52839   0.53517   0.54766   0.55110
 Alpha virt. eigenvalues --    0.55725   0.56026   0.56834   0.57158   0.57618
 Alpha virt. eigenvalues --    0.58316   0.58658   0.58723   0.59289   0.60228
 Alpha virt. eigenvalues --    0.60561   0.61100   0.61241   0.61703   0.61991
 Alpha virt. eigenvalues --    0.62567   0.63195   0.63239   0.63639   0.63992
 Alpha virt. eigenvalues --    0.64225   0.64866   0.65204   0.65583   0.65991
 Alpha virt. eigenvalues --    0.67456   0.67814   0.68116   0.68378   0.68778
 Alpha virt. eigenvalues --    0.69242   0.70158   0.70747   0.71103   0.71953
 Alpha virt. eigenvalues --    0.72034   0.72801   0.73091   0.73750   0.73767
 Alpha virt. eigenvalues --    0.74651   0.75407   0.75918   0.76709   0.77426
 Alpha virt. eigenvalues --    0.77998   0.78683   0.79475   0.80551   0.82307
 Alpha virt. eigenvalues --    0.82850   0.83091   0.84135   0.84359   0.85052
 Alpha virt. eigenvalues --    0.85524   0.86389   0.86672   0.87041   0.87200
 Alpha virt. eigenvalues --    0.87632   0.87660   0.88603   0.88640   0.88872
 Alpha virt. eigenvalues --    0.89203   0.89458   0.89544   0.90023   0.90522
 Alpha virt. eigenvalues --    0.91228   0.91521   0.91649   0.92229   0.92353
 Alpha virt. eigenvalues --    0.92770   0.93410   0.93859   0.94619   0.94675
 Alpha virt. eigenvalues --    0.94806   0.95418   0.95721   0.96069   0.96619
 Alpha virt. eigenvalues --    0.96937   0.97206   0.97742   0.98018   0.98208
 Alpha virt. eigenvalues --    0.98924   0.99321   0.99495   0.99831   1.00391
 Alpha virt. eigenvalues --    1.00486   1.00858   1.01743   1.02373   1.03048
 Alpha virt. eigenvalues --    1.03231   1.03825   1.04188   1.04507   1.05442
 Alpha virt. eigenvalues --    1.06769   1.06843   1.07804   1.08098   1.08981
 Alpha virt. eigenvalues --    1.09287   1.09680   1.09955   1.10609   1.10793
 Alpha virt. eigenvalues --    1.11841   1.12847   1.12997   1.13717   1.14261
 Alpha virt. eigenvalues --    1.15321   1.16655   1.17319   1.18240   1.18744
 Alpha virt. eigenvalues --    1.19913   1.20047   1.20325   1.21963   1.22075
 Alpha virt. eigenvalues --    1.23105   1.23674   1.24369   1.25373   1.27559
 Alpha virt. eigenvalues --    1.28267   1.28754   1.29310   1.29744   1.30512
 Alpha virt. eigenvalues --    1.30680   1.31930   1.32256   1.33115   1.33974
 Alpha virt. eigenvalues --    1.35520   1.37562   1.37958   1.39942   1.42299
 Alpha virt. eigenvalues --    1.42549   1.43086   1.43907   1.44529   1.45352
 Alpha virt. eigenvalues --    1.46313   1.47034   1.47292   1.47661   1.49550
 Alpha virt. eigenvalues --    1.49765   1.51194   1.51714   1.52554   1.52683
 Alpha virt. eigenvalues --    1.53167   1.54448   1.55370   1.57058   1.59184
 Alpha virt. eigenvalues --    1.60173   1.61546   1.62235   1.63492   1.63912
 Alpha virt. eigenvalues --    1.65038   1.65398   1.66564   1.67229   1.69683
 Alpha virt. eigenvalues --    1.70970   1.73189   1.75934   1.77174   1.77759
 Alpha virt. eigenvalues --    1.78762   1.80036   1.81027   1.82363   1.82717
 Alpha virt. eigenvalues --    1.83789   1.84605   1.85263   1.85366   1.86493
 Alpha virt. eigenvalues --    1.86685   1.86911   1.87138   1.87765   1.88520
 Alpha virt. eigenvalues --    1.89651   1.90045   1.90456   1.90745   1.91723
 Alpha virt. eigenvalues --    1.92136   1.93072   1.93350   1.94195   1.95654
 Alpha virt. eigenvalues --    1.96381   1.97271   1.97998   1.98240   1.99017
 Alpha virt. eigenvalues --    1.99286   1.99964   2.00337   2.01170   2.01424
 Alpha virt. eigenvalues --    2.01983   2.02107   2.02841   2.03445   2.04364
 Alpha virt. eigenvalues --    2.05553   2.05721   2.07481   2.08258   2.08612
 Alpha virt. eigenvalues --    2.09651   2.10979   2.11166   2.12293   2.12777
 Alpha virt. eigenvalues --    2.13741   2.14972   2.15745   2.16248   2.16574
 Alpha virt. eigenvalues --    2.17157   2.17458   2.18098   2.18879   2.20148
 Alpha virt. eigenvalues --    2.21545   2.22154   2.22819   2.24452   2.24947
 Alpha virt. eigenvalues --    2.25393   2.27419   2.28002   2.28740   2.29257
 Alpha virt. eigenvalues --    2.30160   2.31198   2.31710   2.32208   2.32817
 Alpha virt. eigenvalues --    2.33754   2.34484   2.35292   2.37304   2.38138
 Alpha virt. eigenvalues --    2.39825   2.40107   2.41249   2.42036   2.44564
 Alpha virt. eigenvalues --    2.45017   2.45881   2.46281   2.47678   2.50562
 Alpha virt. eigenvalues --    2.51521   2.51743   2.52784   2.53241   2.56651
 Alpha virt. eigenvalues --    2.58496   2.60340   2.60786   2.61615   2.63999
 Alpha virt. eigenvalues --    2.65805   2.66570   2.67497   2.67950   2.68135
 Alpha virt. eigenvalues --    2.69289   2.70108   2.73469   2.74218   2.75138
 Alpha virt. eigenvalues --    2.75178   2.75745   2.76320   2.79839   2.81187
 Alpha virt. eigenvalues --    2.81707   2.82371   2.85594   2.85951   2.87560
 Alpha virt. eigenvalues --    2.88081   2.91855   2.92401   2.94805   3.00753
 Alpha virt. eigenvalues --    3.04064   3.16004   3.19176   3.38657   3.40086
 Alpha virt. eigenvalues --    3.88060   3.91108   3.95287   3.96702   3.98676
 Alpha virt. eigenvalues --    3.99367   4.00186   4.03566   4.10367   4.11292
 Alpha virt. eigenvalues --    4.13915   4.14799   4.16177   4.16844   4.18885
 Alpha virt. eigenvalues --    4.20276   4.22500   4.24104   4.26041   4.28086
 Alpha virt. eigenvalues --    4.30846   4.32773   4.35314   4.38152   4.38652
 Alpha virt. eigenvalues --    4.39917   4.41253   4.44447   4.48920   4.51706
 Alpha virt. eigenvalues --    4.53639   4.65502   4.70824   4.73306
  Beta  occ. eigenvalues --  -90.14285 -90.10135 -89.97856 -89.96260 -19.63839
  Beta  occ. eigenvalues --  -19.63588 -19.63494 -19.63363 -14.79532 -14.77655
  Beta  occ. eigenvalues --  -10.64971 -10.63617 -10.60848 -10.60714 -10.59717
  Beta  occ. eigenvalues --  -10.59574 -10.59050 -10.58860 -10.58505 -10.58462
  Beta  occ. eigenvalues --  -10.58371 -10.58221 -10.57836 -10.57673 -10.57504
  Beta  occ. eigenvalues --  -10.57347 -10.57303 -10.57131 -10.56671 -10.56466
  Beta  occ. eigenvalues --  -10.56394 -10.56191 -10.55522 -10.54232  -8.45745
  Beta  occ. eigenvalues --   -8.42273  -8.32367  -8.30873  -6.37891  -6.37873
  Beta  occ. eigenvalues --   -6.37790  -6.34403  -6.34303  -6.33880  -6.24351
  Beta  occ. eigenvalues --   -6.24138  -6.23873  -6.22864  -6.22657  -6.22390
  Beta  occ. eigenvalues --   -1.22952  -1.20294  -1.12102  -1.10477  -1.10325
  Beta  occ. eigenvalues --   -1.08995  -0.97762  -0.97006  -0.94549  -0.93383
  Beta  occ. eigenvalues --   -0.91998  -0.90609  -0.89641  -0.88153  -0.86416
  Beta  occ. eigenvalues --   -0.85924  -0.84793  -0.84418  -0.81787  -0.79450
  Beta  occ. eigenvalues --   -0.76940  -0.74210  -0.73534  -0.70147  -0.69907
  Beta  occ. eigenvalues --   -0.69784  -0.69078  -0.67340  -0.67102  -0.65686
  Beta  occ. eigenvalues --   -0.64989  -0.64266  -0.59916  -0.58486  -0.58130
  Beta  occ. eigenvalues --   -0.57753  -0.57356  -0.57167  -0.56824  -0.56609
  Beta  occ. eigenvalues --   -0.56152  -0.55185  -0.54587  -0.54087  -0.52951
  Beta  occ. eigenvalues --   -0.52780  -0.52359  -0.51969  -0.51775  -0.51534
  Beta  occ. eigenvalues --   -0.50936  -0.50426  -0.50270  -0.49383  -0.48625
  Beta  occ. eigenvalues --   -0.48130  -0.47962  -0.47085  -0.46425  -0.46287
  Beta  occ. eigenvalues --   -0.44868  -0.44624  -0.44259  -0.43887  -0.43692
  Beta  occ. eigenvalues --   -0.43255  -0.42884  -0.42156  -0.41990  -0.41329
  Beta  occ. eigenvalues --   -0.41128  -0.40171  -0.39997  -0.39884  -0.39623
  Beta  occ. eigenvalues --   -0.39255  -0.38178  -0.38053  -0.37736  -0.37301
  Beta  occ. eigenvalues --   -0.37081  -0.36847  -0.36587  -0.34886  -0.34627
  Beta  occ. eigenvalues --   -0.32762  -0.31463  -0.30349  -0.29415  -0.29229
  Beta virt. eigenvalues --   -0.08122  -0.03404  -0.00946   0.00787   0.02060
  Beta virt. eigenvalues --    0.03997   0.04391   0.04581   0.05758   0.06654
  Beta virt. eigenvalues --    0.08894   0.10060   0.11149   0.11811   0.12500
  Beta virt. eigenvalues --    0.12761   0.13159   0.13510   0.13945   0.14414
  Beta virt. eigenvalues --    0.14620   0.14835   0.14938   0.15794   0.15847
  Beta virt. eigenvalues --    0.16469   0.16704   0.17308   0.17319   0.17718
  Beta virt. eigenvalues --    0.18145   0.18467   0.19445   0.19621   0.19774
  Beta virt. eigenvalues --    0.20307   0.20659   0.20796   0.20935   0.21069
  Beta virt. eigenvalues --    0.21523   0.22019   0.22137   0.22508   0.23276
  Beta virt. eigenvalues --    0.23765   0.24392   0.24790   0.25065   0.25369
  Beta virt. eigenvalues --    0.26384   0.26584   0.27431   0.27770   0.28382
  Beta virt. eigenvalues --    0.28749   0.28867   0.30144   0.30423   0.31285
  Beta virt. eigenvalues --    0.32269   0.32941   0.33191   0.34373   0.34711
  Beta virt. eigenvalues --    0.36247   0.36768   0.37079   0.38248   0.38946
  Beta virt. eigenvalues --    0.40293   0.40537   0.41084   0.41438   0.42266
  Beta virt. eigenvalues --    0.42749   0.43611   0.44198   0.45174   0.46054
  Beta virt. eigenvalues --    0.47280   0.48279   0.49556   0.50156   0.50463
  Beta virt. eigenvalues --    0.50999   0.51920   0.53156   0.53737   0.55069
  Beta virt. eigenvalues --    0.55288   0.55808   0.56055   0.56985   0.57176
  Beta virt. eigenvalues --    0.57635   0.58373   0.58733   0.59009   0.59598
  Beta virt. eigenvalues --    0.60544   0.60687   0.61135   0.61267   0.61819
  Beta virt. eigenvalues --    0.62100   0.62639   0.63236   0.63244   0.63626
  Beta virt. eigenvalues --    0.64191   0.64412   0.64921   0.65233   0.65690
  Beta virt. eigenvalues --    0.66009   0.67518   0.67827   0.68469   0.68610
  Beta virt. eigenvalues --    0.68856   0.69361   0.70220   0.70916   0.71462
  Beta virt. eigenvalues --    0.72082   0.72146   0.72974   0.73656   0.73860
  Beta virt. eigenvalues --    0.73870   0.74980   0.75650   0.75991   0.77006
  Beta virt. eigenvalues --    0.77502   0.78029   0.78873   0.80035   0.81277
  Beta virt. eigenvalues --    0.82377   0.82921   0.83280   0.84200   0.84556
  Beta virt. eigenvalues --    0.85131   0.85649   0.86473   0.86738   0.87150
  Beta virt. eigenvalues --    0.87275   0.87684   0.87785   0.88622   0.88767
  Beta virt. eigenvalues --    0.88967   0.89275   0.89505   0.89736   0.90156
  Beta virt. eigenvalues --    0.90624   0.91267   0.91644   0.91769   0.92437
  Beta virt. eigenvalues --    0.92528   0.92952   0.93689   0.93907   0.94664
  Beta virt. eigenvalues --    0.94767   0.94964   0.95472   0.95901   0.96157
  Beta virt. eigenvalues --    0.96686   0.97039   0.97286   0.97860   0.98080
  Beta virt. eigenvalues --    0.98298   0.98957   0.99441   0.99563   0.99878
  Beta virt. eigenvalues --    1.00381   1.00568   1.00892   1.01880   1.02482
  Beta virt. eigenvalues --    1.03124   1.03274   1.03954   1.04220   1.04686
  Beta virt. eigenvalues --    1.05646   1.06858   1.06917   1.07883   1.08208
  Beta virt. eigenvalues --    1.09186   1.09450   1.09843   1.09988   1.10692
  Beta virt. eigenvalues --    1.11123   1.12039   1.12966   1.13108   1.13740
  Beta virt. eigenvalues --    1.14339   1.15756   1.16870   1.17713   1.18382
  Beta virt. eigenvalues --    1.19111   1.20071   1.20175   1.20579   1.22095
  Beta virt. eigenvalues --    1.22269   1.23189   1.23766   1.24570   1.25804
  Beta virt. eigenvalues --    1.27652   1.28330   1.28888   1.29521   1.29849
  Beta virt. eigenvalues --    1.30555   1.30734   1.32034   1.32318   1.33310
  Beta virt. eigenvalues --    1.34084   1.35629   1.37771   1.38148   1.40071
  Beta virt. eigenvalues --    1.42325   1.42672   1.43307   1.44202   1.44656
  Beta virt. eigenvalues --    1.45387   1.46410   1.47054   1.47340   1.47740
  Beta virt. eigenvalues --    1.49594   1.49993   1.51263   1.51786   1.52606
  Beta virt. eigenvalues --    1.52690   1.53562   1.54489   1.55446   1.57226
  Beta virt. eigenvalues --    1.59263   1.60178   1.61698   1.62351   1.63697
  Beta virt. eigenvalues --    1.64032   1.65176   1.65650   1.66738   1.67359
  Beta virt. eigenvalues --    1.69872   1.70951   1.73379   1.75988   1.77234
  Beta virt. eigenvalues --    1.77754   1.78893   1.80084   1.81087   1.82232
  Beta virt. eigenvalues --    1.82826   1.83822   1.84786   1.85305   1.85570
  Beta virt. eigenvalues --    1.86554   1.87017   1.87173   1.87353   1.87977
  Beta virt. eigenvalues --    1.88647   1.89819   1.90255   1.90696   1.90902
  Beta virt. eigenvalues --    1.91981   1.92274   1.93302   1.93488   1.94381
  Beta virt. eigenvalues --    1.95736   1.96460   1.97574   1.98220   1.98350
  Beta virt. eigenvalues --    1.99086   1.99371   1.99975   2.00553   2.01193
  Beta virt. eigenvalues --    2.01498   2.01990   2.02188   2.02889   2.03553
  Beta virt. eigenvalues --    2.04435   2.05700   2.06082   2.07602   2.08433
  Beta virt. eigenvalues --    2.09033   2.09778   2.11050   2.11392   2.12330
  Beta virt. eigenvalues --    2.13199   2.13767   2.15240   2.15784   2.16279
  Beta virt. eigenvalues --    2.16607   2.17232   2.17660   2.18157   2.19190
  Beta virt. eigenvalues --    2.20399   2.21567   2.22202   2.23080   2.24600
  Beta virt. eigenvalues --    2.25039   2.25396   2.27430   2.28018   2.28861
  Beta virt. eigenvalues --    2.29391   2.30350   2.31217   2.31785   2.32222
  Beta virt. eigenvalues --    2.32862   2.34020   2.34568   2.35452   2.37383
  Beta virt. eigenvalues --    2.38149   2.39922   2.40314   2.41215   2.42130
  Beta virt. eigenvalues --    2.44611   2.45081   2.45947   2.47269   2.47750
  Beta virt. eigenvalues --    2.50566   2.51556   2.51745   2.52799   2.53294
  Beta virt. eigenvalues --    2.57670   2.58545   2.60343   2.60836   2.61752
  Beta virt. eigenvalues --    2.64025   2.65814   2.66612   2.67505   2.68032
  Beta virt. eigenvalues --    2.68147   2.69303   2.70296   2.73471   2.74244
  Beta virt. eigenvalues --    2.75154   2.75190   2.75761   2.78397   2.80025
  Beta virt. eigenvalues --    2.81360   2.81842   2.82446   2.85995   2.87033
  Beta virt. eigenvalues --    2.87719   2.88479   2.91869   2.92413   2.94816
  Beta virt. eigenvalues --    3.00757   3.04069   3.16006   3.19179   3.38658
  Beta virt. eigenvalues --    3.40086   3.88572   3.91145   3.95494   3.96730
  Beta virt. eigenvalues --    3.99220   4.00048   4.01195   4.03589   4.10380
  Beta virt. eigenvalues --    4.11306   4.13918   4.14826   4.16193   4.16900
  Beta virt. eigenvalues --    4.19728   4.20345   4.22638   4.24270   4.26096
  Beta virt. eigenvalues --    4.28109   4.31006   4.32032   4.35399   4.38165
  Beta virt. eigenvalues --    4.38694   4.40077   4.41891   4.44534   4.49086
  Beta virt. eigenvalues --    4.51831   4.54458   4.65557   4.70825   4.73307
          Condensed to atoms (all electrons):
          Atomic-Atomic Spin Densities.
 Mulliken charges and spin densities:
               1          2
     1  C   -0.152127   0.000058
     2  C    0.240587   0.000005
     3  C   -0.179201   0.000108
     4  C   -0.192253  -0.000025
     5  C   -0.153250   0.000075
     6  C   -0.188362  -0.000024
     7  H    0.190907  -0.000003
     8  H    0.189360   0.000001
     9  H    0.179093  -0.000002
    10  H    0.179491   0.000001
    11  S    0.348869   0.000239
    12  N   -0.417308   0.000202
    13  C   -0.190193   0.001151
    14  S    1.199395   0.001869
    15  O   -0.535543   0.001263
    16  O   -0.541317   0.000130
    17  C   -0.524550   0.010479
    18  C   -0.364007  -0.037962
    19  H    0.253319  -0.000011
    20  H    0.222033  -0.000306
    21  C   -0.056253   0.524894
    22  H    0.217873   0.001986
    23  H    0.225702   0.022678
    24  C   -0.496648  -0.191336
    25  H    0.173965  -0.026843
    26  H    0.202138   0.010740
    27  H    0.223075   0.017114
    28  S    1.045981   0.263198
    29  C   -0.514118   0.091876
    30  O   -0.569206   0.117224
    31  O   -0.531119   0.188770
    32  C   -0.316416   0.005513
    33  H    0.227559  -0.005002
    34  H    0.208380  -0.004789
    35  H    0.198396  -0.000185
    36  C   -0.172815   0.004009
    37  H    0.205500   0.000868
    38  C    0.076631  -0.000130
    39  C   -0.315498   0.001610
    40  H    0.183691  -0.000120
    41  S    0.260778  -0.000006
    42  N   -0.487037   0.000306
    43  H    0.171167   0.000558
    44  H    0.166464  -0.000098
    45  C   -0.303269  -0.000112
    46  C   -0.172107   0.000006
    47  C    0.239994  -0.000081
    48  H    0.163279   0.000045
    49  H    0.156418   0.000006
    50  C   -0.481656   0.000022
    51  C   -0.190580  -0.000001
    52  C   -0.164975  -0.000055
    53  H    0.163591  -0.000001
    54  H    0.168556   0.000013
    55  H    0.160706  -0.000004
    56  C   -0.142371  -0.000003
    57  H    0.179559   0.000000
    58  C   -0.178044   0.000003
    59  H    0.174908   0.000082
    60  H    0.165457  -0.000001
    61  H    0.167402   0.000000
 Sum of Mulliken charges =  -0.00000   1.00000
 Mulliken charges and spin densities with hydrogens summed into heavy atoms:
               1          2
     1  C    0.038780   0.000054
     2  C    0.240587   0.000005
     3  C   -0.179201   0.000108
     4  C   -0.002893  -0.000024
     5  C    0.025842   0.000073
     6  C   -0.008872  -0.000023
    11  S    0.348869   0.000239
    12  N   -0.417308   0.000202
    13  C   -0.190193   0.001151
    14  S    1.199395   0.001869
    15  O   -0.535543   0.001263
    16  O   -0.541317   0.000130
    17  C   -0.049198   0.010161
    18  C    0.079569  -0.013298
    21  C    0.117711   0.498051
    24  C   -0.071436  -0.163482
    28  S    1.045981   0.263198
    29  C   -0.078179   0.082084
    30  O   -0.569206   0.117224
    31  O   -0.531119   0.188770
    32  C    0.087479   0.006196
    36  C    0.010876   0.003889
    38  C    0.076631  -0.000130
    39  C    0.022134   0.002069
    41  S    0.260778  -0.000006
    42  N   -0.487037   0.000306
    45  C    0.016428  -0.000061
    46  C   -0.172107   0.000006
    47  C    0.239994  -0.000081
    50  C    0.011198   0.000030
    51  C   -0.011021  -0.000001
    52  C    0.009933   0.000028
    56  C    0.023086  -0.000004
    58  C   -0.010643   0.000003
 APT charges:
               1
     1  C   -0.531417
     2  C   -0.530268
     3  C   -0.519538
     4  C   -0.597169
     5  C   -0.494622
     6  C   -0.379209
     7  H    0.545163
     8  H    0.646885
     9  H    1.172147
    10  H    1.147319
    11  S    0.168164
    12  N   -0.345823
    13  C   -0.242975
    14  S    0.082714
    15  O    0.226923
    16  O   -0.398028
    17  C   -0.309838
    18  C   -1.380652
    19  H    0.135569
    20  H    0.295713
    21  C   -0.475927
    22  H    0.514875
    23  H    0.696394
    24  C   -1.018359
    25  H    0.197556
    26  H    0.719994
    27  H    0.724592
    28  S    0.214132
    29  C   -0.698131
    30  O   -0.869993
    31  O    0.485431
    32  C   -0.917614
    33  H   -0.022890
    34  H    0.840101
    35  H    0.855120
    36  C   -0.522868
    37  H    0.084040
    38  C    0.308890
    39  C   -0.543193
    40  H    0.573753
    41  S    0.218988
    42  N   -0.493389
    43  H    0.443191
    44  H    0.223022
    45  C   -0.894261
    46  C   -0.347658
    47  C   -0.259036
    48  H    0.365656
    49  H    0.545960
    50  C   -2.067071
    51  C   -0.518509
    52  C   -0.522328
    53  H    0.249305
    54  H    1.202833
    55  H    0.465596
    56  C   -0.490314
    57  H    0.639698
    58  C   -0.488976
    59  H    0.504529
    60  H    0.698393
    61  H    0.687411
 Sum of APT charges =  -0.00000
 APT charges with hydrogens summed into heavy atoms:
               1
     1  C    0.013746
     2  C   -0.530268
     3  C   -0.519538
     4  C    0.049716
     5  C    0.677525
     6  C    0.768110
    11  S    0.168164
    12  N   -0.345823
    13  C   -0.242975
    14  S    0.082714
    15  O    0.226923
    16  O   -0.398028
    17  C    0.121443
    18  C   -0.169383
    21  C   -0.278370
    24  C    0.426227
    28  S    0.214132
    29  C    0.119080
    30  O   -0.869993
    31  O    0.485431
    32  C    0.021547
    36  C    0.050885
    38  C    0.308890
    39  C    0.123020
    41  S    0.218988
    42  N   -0.493389
    45  C    0.017355
    46  C   -0.347658
    47  C   -0.259036
    50  C   -0.149337
    51  C    0.121189
    52  C   -0.017799
    56  C    0.208079
    58  C    0.198435
 Electronic spatial extent (au):  <R**2>=          19799.7929
 Charge=             -0.0000 electrons
 Dipole moment (field-independent basis, Debye):
    X=             -0.5939    Y=             -7.1010    Z=              4.3767  Tot=              8.3626
 Quadrupole moment (field-independent basis, Debye-Ang):
   XX=           -210.7498   YY=           -236.5408   ZZ=           -227.1565
   XY=             12.3426   XZ=              6.4654   YZ=             21.0384
 Traceless Quadrupole moment (field-independent basis, Debye-Ang):
   XX=             14.0659   YY=            -11.7251   ZZ=             -2.3408
   XY=             12.3426   XZ=              6.4654   YZ=             21.0384
 Octapole moment (field-independent basis, Debye-Ang**2):
  XXX=            -68.5643  YYY=             -1.0915  ZZZ=              4.3585  XYY=             12.2236
  XXY=           -192.4529  XXZ=             41.9178  XZZ=            -15.2711  YZZ=             -2.5579
  YYZ=             15.9764  XYZ=             21.5438
 Hexadecapole moment (field-independent basis, Debye-Ang**3):
 XXXX=         -16580.7785 YYYY=          -7649.6341 ZZZZ=          -1974.4915 XXXY=            113.8706
 XXXZ=             16.9833 YYYX=            259.6313 YYYZ=            132.9134 ZZZX=            -30.3172
 ZZZY=             55.9924 XXYY=          -4144.0750 XXZZ=          -3041.4413 YYZZ=          -1644.2246
 XXYZ=            138.4183 YYXZ=            110.9524 ZZXY=             83.1211
 N-N= 4.552405263682D+03 E-N=-1.600230197367D+04  KE= 2.916952434195D+03
  Exact polarizability:       0.000       0.000       0.000       0.000       0.000       0.000
 Approx polarizability:     493.492      64.215     386.013     -61.669      57.558     455.993
                          Isotropic Fermi Contact Couplings
        Atom                 a.u.       MegaHertz       Gauss      10(-4) cm-1
     1  C(13)              0.00001       0.01356       0.00484       0.00452
     2  C(13)              0.00009       0.09964       0.03555       0.03324
     3  C(13)              0.00003       0.03794       0.01354       0.01266
     4  C(13)              0.00001       0.00795       0.00284       0.00265
     5  C(13)              0.00002       0.02438       0.00870       0.00813
     6  C(13)             -0.00000      -0.00486      -0.00173      -0.00162
     7  H(1)              -0.00000      -0.00473      -0.00169      -0.00158
     8  H(1)               0.00000       0.00412       0.00147       0.00137
     9  H(1)              -0.00000      -0.00222      -0.00079      -0.00074
    10  H(1)               0.00000       0.00155       0.00055       0.00052
    11  S(33)              0.00039       0.13254       0.04730       0.04421
    12  N(14)              0.00011       0.03613       0.01289       0.01205
    13  C(13)              0.00182       2.04655       0.73026       0.68265
[...]
 725,0.00015075,0.00041860,-0.07584736,-0.04055641,-0.05510136,0.000000
 52,-0.00000022,-0.00000307,0.00000248,-0.00000268,-0.00000172,0.000000
 24,-0.00000137,0.00000076,-0.00511795,-0.00206458,0.00062759,0.0001569
 5,0.00014584,-0.00016976,-0.00058613,-0.01575881,-0.02483123,0.0726017
 8,0.00000950,-0.00000831,-0.00001264,0.00002180,-0.00000885,-0.0000028
 6,-0.00001169,-0.00001749,-0.00001117,-0.00001667,0.00001506,0.0000163
 7,-0.00000647,0.00001075,-0.00000105,0.00000471,-0.00001227,-0.0000185
 2,-0.00000401,0.00001014,0.00000174,0.00000148,-0.00000131,-0.00000063
 ,-0.00000296,-0.00000162,-0.00000062,-0.00000596,-0.00000188,0.0000010
 6,-0.00001279,-0.00002211,0.00000070,-0.00002755,-0.00000356,-0.000028
 20,-0.00002051,0.00001926,0.00004360,0.00023704,0.00001124,0.00013606,
 -0.00007336,0.00003222,-0.00002636,-0.00005076,-0.00000259,-0.00009593
 ,-0.00014145,0.00000148,0.00005181,0.00001723,0.00002021,-0.00006694,-
 0.00001837,0.00001534,-0.00000453,0.00009511,-0.00001159,0.00000874,-0
 .00004022,-0.00009227,0.00010160,0.00000663,0.00002244,0.00000150,0.00
 000710,-0.00000954,0.00001592,0.00001652,0.00003788,-0.00005750,-0.000
 04477,0.00001780,-0.00005484,0.00000002,0.00000347,0.00000485,0.000013
 96,0.00000435,-0.00000274,-0.00010104,0.00007129,0.00006615,-0.0000101
 7,-0.00002775,-0.00001151,0.00003620,-0.00002477,-0.00002501,0.0000648
 8,-0.00001469,-0.00002947,0.00001608,-0.00000811,0.00000187,-0.0000033
 5,0.00002078,-0.00001491,0.00000632,0.00000193,-0.00000146,0.00000496,
 0.00000563,-0.00000344,0.00000037,0.00009229,-0.00003744,-0.00000449,-
 0.00000463,0.00000736,0.00012220,-0.00030616,-0.00004365,0.00002245,-0
 .00000165,-0.00003019,0.00003558,0.00000838,-0.00001377,0.00001120,0.0
 0022891,-0.00019943,0.00019071,-0.00248716,0.00223097,-0.00000237,-0.0
 0000260,-0.00000938,-0.00000216,-0.00000319,0.00002516,-0.00000995,0.0
 0000658,-0.00000096,0.00041809,0.00411284,-0.00295064,-0.00371747,-0.0
 0051718,-0.00665418,-0.00000120,-0.00000156,0.00000279,0.00000688,0.00
 000178,0.00000597,0.00000213,0.00000265,0.00000158,0.00047204,-0.00020
 220,0.00044511,-0.03965712,-0.12616371,-0.13533776,-0.00000097,-0.0000
 0031,0.00000245,0.00000284,-0.00000093,-0.00000129,-0.00000172,-0.0000
 0356,-0.00000142,-0.00254295,0.00601964,-0.00252384,0.00016675,-0.0009
 3370,0.00052098,-0.00090202,-0.00091916,-0.00650532,0.04482883,0.12417
 332,-0.00002435,0.,-0.00000255,-0.00004071,-0.00002490,-0.00000228,-0.
 00000236,0.00003230,0.00003461,-0.00000813,-0.00000346,-0.00001280,0.0
 0001648,0.00002610,-0.00000797,0.00000807,0.00003753,0.00000295,0.0000
 0479,-0.00001480,-0.00000138,0.00000430,-0.00000027,0.00000509,0.00000
 618,0.00000015,-0.00000026,0.00000648,0.00000152,0.00000022,0.00001716
 ,0.00003054,0.00004321,0.00004915,0.00000270,0.00007262,0.00005855,-0.
 00003918,-0.00011449,-0.00051892,-0.00010585,-0.00028252,0.00015411,-0
 .00003303,0.00005719,0.00011459,0.00003341,0.00019222,0.00028806,0.000
 06461,-0.00010080,-0.00003032,-0.00002380,0.00012259,0.00001746,-0.000
 03182,-0.00001738,-0.00021175,0.00020582,-0.00012641,0.00007590,0.0001
 2542,-0.00016732,-0.00001626,-0.00004778,-0.00000938,-0.00001090,0.000
 00900,-0.00002189,-0.00003050,-0.00005178,0.00008201,0.00009243,0.0001
 0759,0.00009841,0.00000047,-0.00000212,-0.00000603,-0.00001903,-0.0000
 0717,0.00000800,0.00013859,-0.00009270,-0.00015070,0.00004005,0.000032
 78,0.00002216,-0.00004042,0.00005246,0.00007171,-0.00009760,0.00001890
 ,0.00005991,-0.00000356,-0.00001051,-0.00002830,0.00006566,-0.00000189
 ,-0.00004870,-0.00000320,0.00000554,0.00000696,0.00000278,0.00001356,0
 .00001156,-0.00004441,-0.00009268,0.00006250,0.00000146,-0.00001799,0.
 00001032,0.00017264,-0.00007957,-0.00055037,0.00004345,0.00001544,-0.0
 0003778,0.00003006,0.00000934,0.00001386,0.00020154,-0.00025858,-0.000
 13327,-0.00163604,0.00224900,0.00040699,-0.00001637,0.00002898,-0.0000
 0935,0.00000156,-0.00001463,0.00003142,-0.00001336,0.00000170,0.000014
 48,0.00327840,-0.00268184,0.00041241,-0.00721591,-0.01130711,-0.012509
 06,0.00001460,0.00000659,-0.00000421,0.00001167,-0.00000076,0.00000248
 ,0.00000546,0.00000463,0.00000119,0.00050275,0.00051294,0.00010399,-0.
 05492360,-0.13615730,-0.24406778,-0.00000319,-0.00000081,0.00000141,0.
 00000419,-0.00000195,-0.00000052,-0.00000258,0.00000352,-0.00000074,0.
 00001554,-0.00274781,0.00333275,-0.00019328,0.00050717,-0.00036169,0.0
 0057789,-0.00136030,0.00072665,0.05952711,0.14901412,0.25362445,-0.000
 27929,0.00099383,-0.00017816,-0.00046651,0.00047213,-0.00011111,-0.000
 42865,0.00033145,-0.00024773,-0.00013886,0.00059841,-0.00027748,-0.000
 32630,-0.00005597,-0.00056050,-0.00050843,0.00029888,0.00032329,0.0000
 1928,-0.00004868,0.00001757,0.00005921,-0.00006947,0.00007893,0.000050
 88,-0.00004133,0.00003081,0.00003624,-0.00005169,0.00002580,-0.0000906
 3,-0.00018963,0.00019456,-0.00007418,-0.00013792,0.00011762,-0.0000381
 0,-0.00010557,-0.00007863,-0.00000217,0.00006322,-0.00001890,0.0000055
 6,-0.00002058,-0.00000102,-0.00000583,-0.00001395,0.00001599,0.0000008
 2,-0.00001143,-0.00000026,-0.00000161,0.00000437,0.00000174,0.00000309
 ,0.00000207,-0.00000144,-0.00000462,0.00000611,0.00000225,0.00000017,-
 0.00000370,-0.00000384,-0.00000112,-0.00000158,-0.00000019,0.00000020,
 -0.00000007,-0.00000053,0.00000343,-0.00000154,-0.00000107,0.00000060,
 0.00000224,0.00000311,-0.00000079,0.00000091,0.00000057,-0.00000007,0.
 00000009,0.00000014,0.00001403,0.00002310,-0.00000788,0.00000407,-0.00
 000592,-0.00000155,-0.00000497,-0.00001067,0.00000366,-0.00001547,-0.0
 0001057,0.00000768,0.00001306,0.00000875,-0.00000056,0.00000229,0.0000
 0536,-0.00000104,0.00000028,-0.00000085,-0.00000057,-0.00000273,0.0000
 0060,-0.00000192,0.00000245,0.00003688,-0.00014492,0.00000388,0.000006
 63,-0.00000428,-0.00015929,0.00032070,0.00061878,-0.00001012,-0.000018
 91,0.00000784,-0.00004604,-0.00001858,0.00000110,-0.00044799,-0.000489
 17,-0.00041199,0.00022456,-0.00008980,-0.00032195,0.00000762,-0.000007
 09,0.00000541,0.00000501,0.00000417,-0.00001534,0.00001035,0.00000006,
 -0.00000591,-0.00097980,0.00056894,0.00343210,0.00024784,0.00037295,0.
 00036036,-0.00000353,-0.00000067,-0.00000043,-0.00000624,-0.00000078,-
 0.00000009,-0.00000408,-0.00000612,-0.00000202,-0.01556338,-0.00665010
 ,-0.00455555,0.00155312,-0.00101984,-0.00027344,0.00000165,0.00000042,
 0.00000041,-0.00000413,0.00000238,0.00000140,0.00000187,0.00000179,-0.
 00000018,-0.31811491,-0.08254816,-0.03867216,0.00068133,0.00066784,-0.
 00049450,-0.00192010,-0.00064423,0.00021344,-0.00010004,0.00000252,0.0
 0015286,0.33655562,0.00023285,-0.00057745,-0.00039250,0.00023341,-0.00
 114042,0.00022702,-0.00002939,-0.00057946,0.00039468,0.00023684,0.0001
 9603,0.00004052,0.00012893,-0.00001779,0.00012538,0.00032979,0.0002996
 9,0.00011526,-0.00004470,0.00000141,0.00000525,-0.00003643,0.00002053,
 -0.00006031,-0.00015718,-0.00000207,-0.00007488,-0.00009085,0.00002544
 ,0.00000806,-0.00005061,-0.00001272,0.00002780,-0.00006974,-0.00003473
 ,0.00000164,0.00015779,-0.00000510,-0.00002607,-0.00039945,-0.00034330
 ,-0.00008017,0.00008945,0.00012859,0.00005605,0.00014253,0.00009727,-0
 .00000111,0.00004514,0.00006474,-0.00000658,0.00002876,-0.00005493,0.0
 0003052,0.00000437,0.00000680,-0.00000172,-0.00002268,0.00003637,-0.00
 000598,-0.00001778,0.00004073,-0.00003126,-0.00000481,-0.00000170,-0.0
 0000010,-0.00000811,-0.00000154,-0.00000627,0.00002273,-0.00001409,0.0
 0001463,0.00000432,-0.00000020,0.00000629,0.00000622,0.00000311,0.,-0.
 00000446,-0.00000158,0.00000132,-0.00005101,0.00005421,-0.00002499,0.0
 0000584,-0.00000791,-0.00000226,0.00003686,-0.00001737,0.00001878,0.00
 001583,-0.00001950,0.00000565,-0.00007994,-0.00001474,0.00000800,0.000
 00234,0.00001356,-0.00000715,0.00000014,-0.00000509,0.00000139,-0.0000
 0019,-0.00001967,0.00001159,0.00009555,-0.00023196,0.00026039,-0.00000
 210,0.00000636,-0.00000090,0.00011895,-0.00011916,-0.00018773,-0.00002
 204,0.00000288,-0.00000792,0.00008081,0.00001613,-0.00002055,0.0001469
 2,0.00076232,-0.00012987,-0.00017115,-0.00022667,0.00036486,0.00000337
 ,-0.00000566,-0.00000299,0.00000140,-0.00000231,0.00000083,0.00000584,
 0.00000252,0.00000912,0.00066321,0.00479948,-0.00384515,0.00081595,-0.
 00063093,-0.00044900,-0.00000229,-0.00000260,0.00000105,0.00000093,0.0
 0000113,-0.00000287,-0.00000421,0.00000150,-0.00000324,0.00881803,0.00
 566354,0.00107326,-0.00090264,0.00250355,-0.00534125,0.00000113,-0.000
 00013,0.00000021,-0.00000188,0.00000092,0.00000058,0.00000053,-0.00000
 176,0.00000061,-0.08163385,-0.06665739,-0.02217881,0.00049568,-0.00293
 785,0.00233968,-0.01605905,-0.00114414,-0.00075615,-0.00088535,-0.0000
 2359,-0.00012957,0.08693854,0.06234403,-0.00017534,-0.00040913,-0.0002
 9589,-0.00010225,0.00003733,0.00002478,-0.00025275,0.00068941,-0.00036
 760,-0.00000604,0.00029234,-0.00078283,-0.00042888,-0.00011704,0.00046
 620,0.00018187,0.00035357,0.00005546,0.00005945,-0.00009764,-0.0000317
 2,-0.00003053,0.00001705,-0.00009193,-0.00001310,-0.00002562,-0.000004
 67,0.00015781,-0.00004390,-0.00003934,0.00006696,0.00001232,-0.0000169
 1,0.00001638,-0.00003406,-0.00007467,-0.00001431,0.00002809,0.00000579
 ,0.00008151,0.00011926,-0.00001015,-0.00001208,-0.00005495,-0.00001580
 ,-0.00003719,-0.00003214,0.00001242,0.00001076,-0.00002205,-0.00001599
 ,-0.00001622,0.00001577,0.00000664,0.00000380,-0.00000543,-0.00000293,
 -0.00000793,0.00001539,0.00000053,0.00002456,0.00000567,-0.00000331,0.
 00000050,-0.00000582,-0.00000058,0.00000073,0.00000188,-0.00000169,-0.
 00002261,0.00000019,0.00000863,0.00000556,0.00000483,0.00000165,-0.000
 00099,-0.00000149,-0.00000218,-0.00000023,-0.00000123,0.00000074,0.000
 04302,-0.00005554,-0.00001503,0.00000285,0.00000686,0.00000481,-0.0000
 2181,0.00002363,0.00000318,-0.00001895,0.00001819,0.00000606,0.0000674
 2,-0.00000872,-0.00000686,0.00000164,-0.00000724,-0.00000580,0.0000016
 5,0.00000480,-0.00000038,0.00000174,0.00002194,-0.00000692,-0.00007789
 ,0.00019637,-0.00001046,-0.00000203,-0.00001200,0.00000493,0.00022023,
 -0.00026167,-0.00055744,0.00002700,0.00002135,0.00000419,0.00000531,0.
 00000612,0.00001401,0.00076506,0.00010293,0.00077657,-0.00031408,0.000
 38864,0.00029027,-0.00001176,0.00001224,-0.00000229,-0.00000699,-0.000
 00106,0.00001785,-0.00001305,0.00000003,0.00000215,0.00342751,-0.00407
 345,-0.00066746,0.00067672,-0.00027940,-0.00113093,0.00000608,0.000003
 23,-0.00000086,0.00000629,-0.00000058,0.00000200,0.00000572,0.00000347
 ,0.00000376,0.02060068,0.00646026,0.00673413,0.00013781,-0.00513856,-0
 .00227525,-0.00000198,-0.00000019,-0.00000037,0.00000386,-0.00000243,-
 0.00000147,-0.00000161,0.00000040,-0.00000037,-0.03936723,-0.02228776,
 -0.05905270,-0.00084724,0.00229071,-0.00057983,-0.02486656,-0.00642267
 ,0.00054722,-0.00121293,-0.00034357,-0.00005450,0.04123783,0.02663217,
 0.05743676,-0.00029256,-0.00005217,-0.00027736,0.00032259,0.00023491,-
 0.00017356,0.00003969,0.00006858,0.00006774,-0.00014887,-0.00004990,0.
 00001194,0.00003467,-0.00003177,-0.00022185,0.00007178,-0.00016201,0.0
 0018629,-0.00027367,0.00025366,0.00003274,-0.00000761,-0.00000447,0.00
 000297,0.00000103,0.00000941,0.00001699,-0.00000721,-0.00000462,-0.000
 00087,-0.00001947,-0.00005485,-0.00000928,-0.00011369,-0.00018224,0.00
 005898,-0.00006007,-0.00008122,0.00007698,0.00005971,0.00012315,0.0000
 7932,0.00000193,-0.00004522,-0.00004400,-0.00001754,-0.00003399,-0.000
 03106,-0.00002680,-0.00005638,0.00004209,0.00000445,0.00001688,-0.0000
 2394,0.00000574,0.00002495,-0.00002981,-0.00004959,-0.00000099,0.00004
 187,-0.00003275,-0.00003660,-0.00000195,0.00000489,0.00000664,0.000001
 73,0.00000279,-0.00001177,0.00001100,0.00003609,-0.00000029,-0.0000209
 0,-0.00001395,0.00001288,0.00000741,-0.00000276,0.00000393,0.00000504,
 0.00000010,0.00000315,0.00000065,-0.00002733,0.00011251,0.00002324,0.0
 0001356,-0.00001625,-0.00000826,0.00000896,-0.00004633,-0.00000766,-0.
 00000323,-0.00004107,0.00000094,-0.00004312,0.00003431,0.00001432,0.00
 001226,0.00003970,0.00000269,-0.00000591,-0.00000648,0.00000180,-0.000
 00947,-0.00002549,0.00000618,0.00003859,0.00008415,0.00011651,0.000005
 05,0.00000745,-0.00000848,-0.00042378,-0.00017622,-0.00035611,-0.00007
 131,-0.00005586,-0.00001562,-0.00000159,0.00000037,0.00000002,0.000198
 45,0.00011590,0.00003551,-0.00088199,0.00056065,0.00138901,0.00000872,
 -0.00000636,-0.00000148,0.00000026,0.00000623,0.00000036,0.00001456,0.
 00002482,0.00002464,-0.00043545,-0.00039231,-0.00063432,-0.00330052,-0
 .00340081,-0.00225459,-0.00000291,-0.00000309,-0.00000013,-0.00000215,
 -0.00000065,-0.00000307,-0.00001652,-0.00000976,-0.00000668,0.00073738
 ,-0.00173104,-0.00138211,-0.01664318,0.00886788,0.02041401,0.00000259,
 0.00000068,0.00000034,-0.00000874,0.00000616,0.00000413,0.00000317,0.0
 0000164,0.00000049,0.00907580,-0.00225727,-0.00595518,0.00039259,-0.00
 020973,-0.00034049,-0.21114344,0.05181069,0.13576238,0.00091892,0.0005
 9238,-0.00059573,0.00024145,0.00084097,0.00003628,0.22182939,0.0000902
 8,0.00010978,0.00022551,0.00005172,0.00022942,-0.00005825,0.00007426,0
 .00013208,0.00010615,0.00000254,-0.00008148,0.00006795,-0.00002695,-0.
 00010832,-0.00003700,0.00004592,-0.00006072,-0.00001726,0.00020208,0.0
 0000212,-0.00003811,-0.00000166,-0.00000731,0.00000165,-0.00000429,-0.
 00000382,-0.00001122,-0.00007158,-0.00000113,-0.00000445,0.00001647,-0
 .00011978,-0.00011003,-0.00005727,0.00023975,-0.00037761,-0.00018414,-
 0.00005103,0.00027292,-0.00005823,-0.00006573,0.00010092,0.00001802,0.
 00003791,-0.00002580,0.00002242,0.00001511,-0.00006399,-0.00001531,-0.
 00003104,0.00005301,0.00000767,-0.00000604,-0.00002315,0.00000117,0.00
 002029,-0.00001889,-0.00005847,0.00000299,0.00000878,-0.00002975,0.000
 00155,-0.00001149,0.00000766,0.00000946,0.00000438,-0.00000168,-0.0000
 0968,0.00000795,0.00002205,-0.00000331,-0.00000410,-0.00000711,0.00000
 472,0.00000122,0.00000272,0.00000226,0.00000173,-0.00000161,0.00000072
 ,0.00000107,-0.00005756,0.00004026,0.00001294,0.00000441,-0.00000759,-
 0.00001006,0.00002950,-0.00001455,-0.00000172,0.00002987,-0.00001034,-
 0.00000864,-0.00003260,0.00000126,0.00001605,-0.00000126,0.00000429,-0
 .00000441,0.00000136,-0.00000185,0.00000068,-0.00000232,-0.00001031,-0
 .00000029,0.00003222,-0.00006832,0.00011355,-0.00000262,0.00000334,-0.
 00000171,-0.00008707,-0.00042826,0.00023727,0.00001413,-0.00001344,-0.
 00000022,0.00001474,0.00000677,-0.00000191,0.00006930,-0.00023343,0.00
 017246,-0.00032069,0.00079759,0.00009815,0.00000425,0.00000583,-0.0000
 0340,-0.00000131,-0.00000264,0.00000232,0.00000002,0.00000597,-0.00000
 846,-0.00073655,-0.00052598,0.00005294,-0.00290282,0.00512747,-0.00366
 624,0.00000100,-0.00000162,0.00000102,0.00000070,0.00000064,0.00000178
 ,0.00000075,0.00000116,-0.00000039,-0.00211842,0.00231195,-0.00486341,
 -0.00705904,0.00588907,0.00674237,-0.00000018,-0.00000016,0.00000088,0
 .00000067,-0.00000017,-0.00000023,-0.00000073,-0.00000125,-0.00000030,
 0.01365566,-0.00106322,-0.01011607,0.00064922,-0.00003440,-0.00060734,
 0.05193424,-0.06367424,-0.05825850,0.00097240,-0.00312768,0.00218859,0
 .00053923,-0.00223734,0.00195888,-0.05467744,0.05700239,-0.00010525,0.
 00004562,-0.00002924,0.00013291,0.00003198,-0.00022159,0.00002633,-0.0
 0006264,-0.00029420,0.00004392,0.00018224,0.00005428,-0.00008679,0.000
 01411,0.00012302,-0.00009128,-0.00033833,-0.00008706,-0.00024657,0.000
 17217,0.00015403,0.00002565,-0.00000680,0.00002380,0.00000457,0.000022
 31,0.00002118,0.00000741,0.00001703,0.00000164,-0.00007878,0.00009957,
 0.00025297,-0.00004567,-0.00020401,0.00037547,0.00006235,-0.00011217,-
 0.00042055,0.00042402,0.00036157,-0.00002029,-0.00009897,-0.00013929,-
 0.00003812,-0.00014218,-0.00008446,0.00006170,-0.00002991,-0.00005102,
 -0.00003859,-0.00003509,0.00005374,-0.00000241,-0.00000377,-0.00001977
 ,0.00000668,0.00007944,0.00000671,0.00000228,0.00003753,-0.00004011,0.
 00003755,-0.00000094,-0.00000899,-0.00000528,0.00000851,0.00000455,0.0
 0000303,-0.00003686,0.00001530,-0.00001127,-0.00000275,-0.00000013,-0.
 00000656,-0.00000796,-0.00000419,-0.00000079,0.00000493,0.00000109,-0.
 00000162,0.00006844,-0.00008883,0.00001586,-0.00000670,0.00001229,0.00
 000863,-0.00004723,0.00003456,-0.00001417,-0.00002167,0.00003049,-0.00
 000364,0.00004127,-0.00001456,-0.00002344,-0.00000289,-0.00001821,0.00
 000385,-0.00000104,0.00000597,-0.00000013,0.00000570,0.00001767,-0.000
 00282,-0.00004346,0.00010478,0.00001805,-0.00000183,-0.00001099,0.0000
 0544,-0.00014295,0.00026602,-0.00007071,-0.00001105,0.00001483,0.00000
 041,0.00001526,0.00000309,-0.00000143,0.00000134,0.00017112,-0.0000934
 5,0.00004240,-0.00022980,0.00043069,-0.00000910,0.00000383,-0.00000169
 ,-0.00000215,-0.00000329,0.00000723,-0.00000955,-0.00000480,0.00000713
 ,-0.00105261,0.00000420,-0.00009963,-0.00125137,-0.00357412,0.00259439
 ,0.00000350,0.00000324,-0.00000083,0.00000296,-0.00000015,-0.00000031,
 0.00000319,0.00000277,0.00000254,-0.00183246,-0.00502846,-0.00163516,-
 0.00564347,0.00170046,0.00747913,-0.00000219,-0.00000079,-0.00000069,0
 .00000468,-0.00000156,-0.00000075,-0.00000175,0.00000111,-0.00000061,0
 .01959985,-0.00511900,-0.01171396,0.00101734,-0.00032833,-0.00065870,0
 .13602773,-0.05822064,-0.17039374,-0.00006474,0.00241472,-0.00080591,-
 0.00045813,0.00199475,-0.00030363,-0.14607213,0.06590154,0.17531202\\0
 .00000115,0.00000037,0.00000101,0.00000139,-0.00000159,0.00000028,0.00
 000153,-0.00000185,0.00000166,-0.00000006,-0.00000051,0.00000016,0.000
 00007,-0.00000008,0.00000023,-0.00000110,-0.00000124,-0.00000015,0.000
 00022,-0.00000003,0.00000063,0.00000039,0.00000046,-0.00000028,-0.0000
 0025,0.,-0.00000018,-0.00000007,0.00000031,0.00000022,-0.00000085,0.00
 000148,0.00000022,0.00000051,-0.00000116,0.00000054,0.00000239,0.00000
 247,-0.00000096,-0.00000494,0.00000085,0.00000587,0.00000009,0.0000005
 8,-0.00000090,0.00000090,-0.00000097,-0.00000175,0.00000166,-0.0000008
 4,-0.00000123,0.00000082,-0.00000075,0.00000019,0.00000103,0.00000079,
 -0.00000068,0.00000081,-0.00000046,-0.00000063,-0.00000093,-0.00000053
 ,0.00000223,-0.00000088,0.00000024,0.00000089,0.00000114,0.00000046,0.
 00000093,0.00000121,-0.00000085,0.00000059,0.00000026,-0.00000023,0.00
 000026,0.00000049,0.00000027,0.00000001,-0.00000046,-0.00000028,-0.000
 00003,-0.00000455,0.00000263,-0.00000456,-0.00000016,-0.00000100,0.000
 00105,0.00000152,-0.00000016,0.00000307,0.00000353,-0.00000062,0.00000
 150,-0.00000050,-0.00000142,-0.00000056,-0.00000014,0.00000012,-0.0000
 0027,0.,-0.00000028,-0.00000043,0.00000019,0.00000012,-0.00000010,0.00
 000032,-0.00000002,0.00000013,0.00000030,-0.00000037,-0.00000026,-0.00
 000318,-0.00000009,-0.00000112,-0.00000029,-0.00000012,-0.00000061,0.0
 0000022,-0.00000020,-0.00000041,0.00000215,0.00000094,0.00000209,0.000
 00052,-0.00000078,-0.00000022,0.00000002,-0.00000021,-0.00000045,-0.00
 000025,0.00000009,-0.00000007,-0.00000006,-0.00000008,-0.00000034,-0.0
 0000011,-0.00000059,-0.00000107,0.00000035,0.00000076,0.00000071,-0.00
 000022,0.00000001,-0.00000040,-0.00000006,-0.00000008,-0.00000042,-0.0
 0000019,-0.00000011,-0.00000047,-0.00000087,0.00000003,-0.00000037,0.0
 0000043,-0.00000028,-0.00000078,-0.00000023,0.00000003,-0.00000050,-0.
 00000014,-0.00000010,-0.00000058,-0.00000018,-0.00000011,-0.00000057,-
 0.00000129,0.00000215,-0.00000132,-0.00000004,0.00000028,-0.00000043,-
 0.00000021,-0.00000032,0.00000104,0.00000019,0.00000012,0.,-0.00000208
 ,0.00000172,-0.00000106,-0.00000150,0.00000106,-0.00000135\\\@
 The archive entry for this job was punched.


 IN THE LONG RUN, DIGGING FOR TRUTH HAS ALWAYS PROVED NOT ONLY 
 MORE INTERESTING BUT MORE PROFITABLE THAN DIGGING FOR GOLD.

                             -- GEORGE R. HARRISON
 Job cpu time:       0 days 14 hours 38 minutes 15.1 seconds.
 Elapsed time:       0 days  0 hours  9 minutes 52.6 seconds.
 File lengths (MBytes):  RWF=   4707 Int=      0 D2E=      0 Chk=     54 Scr=      1
 Normal termination of Gaussian 16 at Thu Nov 20 21:12:26 2025.
