 Entering Gaussian System, Link 0=g16
 Initial command:
 /opt/software/gaussian/g16/l1.exe "/tmp/Gau-2469138.inp" -scrdir="/tmp/"
 Entering Link 1 = /opt/software/gaussian/g16/l1.exe PID=   2469139.
  
 Copyright (c) 1988-2019, Gaussian, Inc.  All Rights Reserved.
  
 This is part of the Gaussian(R) 16 program.  It is based on
 the Gaussian(R) 09 system (copyright 2009, Gaussian, Inc.),
 the Gaussian(R) 03 system (copyright 2003, Gaussian, Inc.),
 the Gaussian(R) 98 system (copyright 1998, Gaussian, Inc.),
 the Gaussian(R) 94 system (copyright 1995, Gaussian, Inc.),
 the Gaussian 92(TM) system (copyright 1992, Gaussian, Inc.),
 the Gaussian 90(TM) system (copyright 1990, Gaussian, Inc.),
 the Gaussian 88(TM) system (copyright 1988, Gaussian, Inc.),
 the Gaussian 86(TM) system (copyright 1986, Carnegie Mellon
 University), and the Gaussian 82(TM) system (copyright 1983,
 Carnegie Mellon University). Gaussian is a federally registered
 trademark of Gaussian, Inc.
  
 This software contains proprietary and confidential information,
 including trade secrets, belonging to Gaussian, Inc.
  
 This software is provided under written license and may be
 used, copied, transmitted, or stored only in accord with that
 written license.
  
 The following legend is applicable only to US Government
 contracts under FAR:
  
                    RESTRICTED RIGHTS LEGEND
  
 Use, reproduction and disclosure by the US Government is
 subject to restrictions as set forth in subparagraphs (a)
 and (c) of the Commercial Computer Software - Restricted
 Rights clause in FAR 52.227-19.
  
 Gaussian, Inc.
 340 Quinnipiac St., Bldg. 40, Wallingford CT 06492
  
  
 ---------------------------------------------------------------
 Warning -- This program may not be used in any manner that
 competes with the business of Gaussian, Inc. or will provide
 assistance to any competitor of Gaussian, Inc.  The licensee
 of this program is prohibited from giving any competitor of
 Gaussian, Inc. access to this program.  By using this program,
 the user acknowledges that Gaussian, Inc. is engaged in the
 business of creating and licensing software in the field of
 computational chemistry and represents and warrants to the
 licensee that it is not a competitor of Gaussian, Inc. and that
 it will not use this program in any manner prohibited above.
 ---------------------------------------------------------------
  

 Cite this work as:
 Gaussian 16, Revision C.01,
 M. J. Frisch, G. W. Trucks, H. B. Schlegel, G. E. Scuseria, 
 M. A. Robb, J. R. Cheeseman, G. Scalmani, V. Barone, 
 G. A. Petersson, H. Nakatsuji, X. Li, M. Caricato, A. V. Marenich, 
 J. Bloino, B. G. Janesko, R. Gomperts, B. Mennucci, H. P. Hratchian, 
 J. V. Ortiz, A. F. Izmaylov, J. L. Sonnenberg, D. Williams-Young, 
 F. Ding, F. Lipparini, F. Egidi, J. Goings, B. Peng, A. Petrone, 
 T. Henderson, D. Ranasinghe, V. G. Zakrzewski, J. Gao, N. Rega, 
 G. Zheng, W. Liang, M. Hada, M. Ehara, K. Toyota, R. Fukuda, 
 J. Hasegawa, M. Ishida, T. Nakajima, Y. Honda, O. Kitao, H. Nakai, 
 T. Vreven, K. Throssell, J. A. Montgomery, Jr., J. E. Peralta, 
 F. Ogliaro, M. J. Bearpark, J. J. Heyd, E. N. Brothers, K. N. Kudin, 
 V. N. Staroverov, T. A. Keith, R. Kobayashi, J. Normand, 
 K. Raghavachari, A. P. Rendell, J. C. Burant, S. S. Iyengar, 
 J. Tomasi, M. Cossi, J. M. Millam, M. Klene, C. Adamo, R. Cammi, 
 J. W. Ochterski, R. L. Martin, K. Morokuma, O. Farkas, 
 J. B. Foresman, and D. J. Fox, Gaussian, Inc., Wallingford CT, 2019.
 
 ******************************************
 Gaussian 16:  ES64L-G16RevC.01  3-Jul-2019
                22-Dec-2025 
 ******************************************
 %nprocshared=16
 Will use up to   16 processors via shared memory.
 %mem=50GB
 %chk=emimcl.chk
 -------------------------------------
 #p opt freq b3lyp/6-311+g(d,p) em=gd3
 -------------------------------------
 1/18=20,19=15,26=3,38=1/1,3;
 2/9=110,12=2,17=6,18=5,40=1/2;
 3/5=4,6=6,7=111,11=2,25=1,30=1,71=1,74=-5,124=31/1,2,3;
 4//1;
 5/5=2,38=5/2;
 6/7=2,8=2,9=2,10=2,28=1/1;
 7//1,2,3,16;
 1/18=20,19=15,26=3/3(2);
 2/9=110/2;
 99//99;
 2/9=110/2;
 3/5=4,6=6,7=111,11=2,25=1,30=1,71=1,74=-5,124=31/1,2,3;
 4/5=5,16=3,69=1/1;
 5/5=2,38=5/2;
 7//1,2,3,16;
 1/18=20,19=15,26=3/3(-5);
 2/9=110/2;
 6/7=2,8=2,9=2,10=2,19=2,28=1/1;
 99/9=1/99;
 Leave Link    1 at Mon Dec 22 19:04:39 2025, MaxMem=  6710886400 cpu:               0.1 elap:               0.0
 (Enter /opt/software/gaussian/g16/l101.exe)
 -------------------
 Title Card Required
 -------------------
 Symbolic Z-matrix:
 Charge =  0 Multiplicity = 1
 C                    -1.76137  -0.74048  -1.13347 
 H                    -1.39814  -0.57886  -2.12688 
 C                    -2.34016  -1.86039  -0.664 
 H                    -2.52553  -2.76027  -1.21241 
 C                    -2.27659  -0.36306   1.0589 
 H                    -2.38731   0.09656   2.01879 
 N                    -1.7236    0.21685  -0.0224 
 N                    -2.66852  -1.61148   0.74406 
 C                    -1.17455   1.57923  -0.08038 
 H                    -0.79635   1.85264   0.88249 
 H                    -0.38166   1.61399  -0.79802 
 C                    -3.31617  -2.5646    1.65676 
 H                    -3.05727  -3.56306   1.37225 
 H                    -2.98469  -2.38159   2.65753 
 H                    -4.37796  -2.4429    1.60486 
 C                    -2.28484   2.56297  -0.49405 
 H                    -3.07772   2.52821   0.22359 
 H                    -1.88519   3.55463  -0.53626 
 H                    -2.66303   2.28956  -1.45693 
 Cl                   -4.44467  -0.01718   0.46202 
 
 Add virtual bond connecting atoms Cl20       and C5         Dist= 4.30D+00.
 Add virtual bond connecting atoms Cl20       and N8         Dist= 4.54D+00.
 ITRead=  0  0  0  0  0  0  0  0  0  0  0  0  0  0  0  0  0  0  0  0
 MicOpt= -1 -1 -1 -1 -1 -1 -1 -1 -1 -1 -1 -1 -1 -1 -1 -1 -1 -1 -1 -1
 NAtoms=     20 NQM=       20 NQMF=       0 NMMI=      0 NMMIF=      0
                NMic=       0 NMicF=      0.
                    Isotopes and Nuclear Properties:
 (Nuclear quadrupole moments (NQMom) in fm**2, nuclear magnetic moments (NMagM)
  in nuclear magnetons)

  Atom         1           2           3           4           5           6           7           8           9          10
 IAtWgt=          12           1          12           1          12           1          14          14          12           1
 AtmWgt=  12.0000000   1.0078250  12.0000000   1.0078250  12.0000000   1.0078250  14.0030740  14.0030740  12.0000000   1.0078250
 NucSpn=           0           1           0           1           0           1           2           2           0           1
 AtZEff=  -0.0000000  -0.0000000  -0.0000000  -0.0000000  -0.0000000  -0.0000000  -0.0000000  -0.0000000  -0.0000000  -0.0000000
 NQMom=    0.0000000   0.0000000   0.0000000   0.0000000   0.0000000   0.0000000   2.0440000   2.0440000   0.0000000   0.0000000
 NMagM=    0.0000000   2.7928460   0.0000000   2.7928460   0.0000000   2.7928460   0.4037610   0.4037610   0.0000000   2.7928460
 AtZNuc=   6.0000000   1.0000000   6.0000000   1.0000000   6.0000000   1.0000000   7.0000000   7.0000000   6.0000000   1.0000000

  Atom        11          12          13          14          15          16          17          18          19          20
 IAtWgt=           1          12           1           1           1          12           1           1           1          35
 AtmWgt=   1.0078250  12.0000000   1.0078250   1.0078250   1.0078250  12.0000000   1.0078250   1.0078250   1.0078250  34.9688527
 NucSpn=           1           0           1           1           1           0           1           1           1           3
 AtZEff=  -0.0000000  -0.0000000  -0.0000000  -0.0000000  -0.0000000  -0.0000000  -0.0000000  -0.0000000  -0.0000000  -0.0000000
 NQMom=    0.0000000   0.0000000   0.0000000   0.0000000   0.0000000   0.0000000   0.0000000   0.0000000   0.0000000  -8.1650000
 NMagM=    2.7928460   0.0000000   2.7928460   2.7928460   2.7928460   0.0000000   2.7928460   2.7928460   2.7928460   0.8218740
 AtZNuc=   1.0000000   6.0000000   1.0000000   1.0000000   1.0000000   6.0000000   1.0000000   1.0000000   1.0000000  17.0000000
 Leave Link  101 at Mon Dec 22 19:04:39 2025, MaxMem=  6710886400 cpu:               0.8 elap:               0.1
 (Enter /opt/software/gaussian/g16/l103.exe)

 GradGradGradGradGradGradGradGradGradGradGradGradGradGradGradGradGradGrad
 Berny optimization.
 Initialization pass.
                           ----------------------------
                           !    Initial Parameters    !
                           ! (Angstroms and Degrees)  !
 --------------------------                            --------------------------
 ! Name  Definition              Value          Derivative Info.                !
 --------------------------------------------------------------------------------
 ! R1    R(1,2)                  1.07           estimate D2E/DX2                !
 ! R2    R(1,3)                  1.3452         estimate D2E/DX2                !
 ! R3    R(1,7)                  1.4671         estimate D2E/DX2                !
 ! R4    R(3,4)                  1.07           estimate D2E/DX2                !
 ! R5    R(3,8)                  1.4671         estimate D2E/DX2                !
 ! R6    R(5,6)                  1.07           estimate D2E/DX2                !
 ! R7    R(5,7)                  1.3458         estimate D2E/DX2                !
 ! R8    R(5,8)                  1.3458         estimate D2E/DX2                !
 ! R9    R(5,20)                 2.2752         estimate D2E/DX2                !
 ! R10   R(7,9)                  1.47           estimate D2E/DX2                !
 ! R11   R(8,12)                 1.47           estimate D2E/DX2                !
 ! R12   R(8,20)                 2.4033         estimate D2E/DX2                !
 ! R13   R(9,10)                 1.07           estimate D2E/DX2                !
 ! R14   R(9,11)                 1.07           estimate D2E/DX2                !
 ! R15   R(9,16)                 1.54           estimate D2E/DX2                !
 ! R16   R(12,13)                1.07           estimate D2E/DX2                !
 ! R17   R(12,14)                1.07           estimate D2E/DX2                !
 ! R18   R(12,15)                1.07           estimate D2E/DX2                !
 ! R19   R(16,17)                1.07           estimate D2E/DX2                !
 ! R20   R(16,18)                1.07           estimate D2E/DX2                !
 ! R21   R(16,19)                1.07           estimate D2E/DX2                !
 ! A1    A(2,1,3)              126.5708         estimate D2E/DX2                !
 ! A2    A(2,1,7)              126.5708         estimate D2E/DX2                !
 ! A3    A(3,1,7)              106.8585         estimate D2E/DX2                !
 ! A4    A(1,3,4)              126.5708         estimate D2E/DX2                !
 ! A5    A(1,3,8)              106.8585         estimate D2E/DX2                !
 ! A6    A(4,3,8)              126.5708         estimate D2E/DX2                !
 ! A7    A(6,5,7)              125.3228         estimate D2E/DX2                !
 ! A8    A(6,5,8)              125.3228         estimate D2E/DX2                !
 ! A9    A(6,5,20)              94.0962         estimate D2E/DX2                !
 ! A10   A(7,5,8)              109.3543         estimate D2E/DX2                !
 ! A11   A(7,5,20)              96.6188         estimate D2E/DX2                !
 ! A12   A(1,7,5)              108.4643         estimate D2E/DX2                !
 ! A13   A(1,7,9)              125.7678         estimate D2E/DX2                !
 ! A14   A(5,7,9)              125.7678         estimate D2E/DX2                !
 ! A15   A(3,8,5)              108.4643         estimate D2E/DX2                !
 ! A16   A(3,8,12)             125.7678         estimate D2E/DX2                !
 ! A17   A(3,8,20)              99.516          estimate D2E/DX2                !
 ! A18   A(5,8,12)             125.7678         estimate D2E/DX2                !
 ! A19   A(12,8,20)            100.217          estimate D2E/DX2                !
 ! A20   A(7,9,10)             109.4712         estimate D2E/DX2                !
 ! A21   A(7,9,11)             109.4712         estimate D2E/DX2                !
 ! A22   A(7,9,16)             109.4712         estimate D2E/DX2                !
 ! A23   A(10,9,11)            109.4712         estimate D2E/DX2                !
 ! A24   A(10,9,16)            109.4712         estimate D2E/DX2                !
 ! A25   A(11,9,16)            109.4712         estimate D2E/DX2                !
 ! A26   A(8,12,13)            109.4712         estimate D2E/DX2                !
 ! A27   A(8,12,14)            109.4712         estimate D2E/DX2                !
 ! A28   A(8,12,15)            109.4712         estimate D2E/DX2                !
 ! A29   A(13,12,14)           109.4712         estimate D2E/DX2                !
 ! A30   A(13,12,15)           109.4712         estimate D2E/DX2                !
 ! A31   A(14,12,15)           109.4712         estimate D2E/DX2                !
 ! A32   A(9,16,17)            109.4712         estimate D2E/DX2                !
 ! A33   A(9,16,18)            109.4712         estimate D2E/DX2                !
 ! A34   A(9,16,19)            109.4712         estimate D2E/DX2                !
 ! A35   A(17,16,18)           109.4712         estimate D2E/DX2                !
 ! A36   A(17,16,19)           109.4712         estimate D2E/DX2                !
 ! A37   A(18,16,19)           109.4712         estimate D2E/DX2                !
 ! D1    D(2,1,3,4)              0.0003         estimate D2E/DX2                !
 ! D2    D(2,1,3,8)           -180.0            estimate D2E/DX2                !
 ! D3    D(7,1,3,4)           -179.9999         estimate D2E/DX2                !
 ! D4    D(7,1,3,8)             -0.0001         estimate D2E/DX2                !
 ! D5    D(2,1,7,5)            179.9999         estimate D2E/DX2                !
 ! D6    D(2,1,7,9)             -0.0001         estimate D2E/DX2                !
 ! D7    D(3,1,7,5)              0.0            estimate D2E/DX2                !
 ! D8    D(3,1,7,9)           -180.0            estimate D2E/DX2                !
 ! D9    D(1,3,8,5)              0.0001         estimate D2E/DX2                !
 ! D10   D(1,3,8,12)          -179.9999         estimate D2E/DX2                !
 ! D11   D(1,3,8,20)            69.9761         estimate D2E/DX2                !
 ! D12   D(4,3,8,5)            179.9999         estimate D2E/DX2                !
 ! D13   D(4,3,8,12)            -0.0001         estimate D2E/DX2                !
 ! D14   D(4,3,8,20)          -110.0241         estimate D2E/DX2                !
 ! D15   D(6,5,7,1)            179.9999         estimate D2E/DX2                !
 ! D16   D(6,5,7,9)             -0.0001         estimate D2E/DX2                !
 ! D17   D(8,5,7,1)              0.0            estimate D2E/DX2                !
 ! D18   D(8,5,7,9)           -180.0            estimate D2E/DX2                !
 ! D19   D(20,5,7,1)           -80.1912         estimate D2E/DX2                !
 ! D20   D(20,5,7,9)            99.8088         estimate D2E/DX2                !
 ! D21   D(6,5,8,3)           -179.9999         estimate D2E/DX2                !
 ! D22   D(6,5,8,12)             0.0001         estimate D2E/DX2                !
 ! D23   D(7,5,8,3)             -0.0001         estimate D2E/DX2                !
 ! D24   D(7,5,8,12)           180.0            estimate D2E/DX2                !
 ! D25   D(1,7,9,10)          -150.0            estimate D2E/DX2                !
 ! D26   D(1,7,9,11)           -30.0            estimate D2E/DX2                !
 ! D27   D(1,7,9,16)            90.0            estimate D2E/DX2                !
 ! D28   D(5,7,9,10)            30.0            estimate D2E/DX2                !
 ! D29   D(5,7,9,11)           150.0            estimate D2E/DX2                !
 ! D30   D(5,7,9,16)           -90.0            estimate D2E/DX2                !
 ! D31   D(3,8,12,13)           30.0            estimate D2E/DX2                !
 ! D32   D(3,8,12,14)          150.0            estimate D2E/DX2                !
 ! D33   D(3,8,12,15)          -90.0            estimate D2E/DX2                !
 ! D34   D(5,8,12,13)         -150.0            estimate D2E/DX2                !
 ! D35   D(5,8,12,14)          -30.0            estimate D2E/DX2                !
 ! D36   D(5,8,12,15)           90.0            estimate D2E/DX2                !
 ! D37   D(20,8,12,13)         139.6863         estimate D2E/DX2                !
 ! D38   D(20,8,12,14)        -100.3137         estimate D2E/DX2                !
 ! D39   D(20,8,12,15)          19.6863         estimate D2E/DX2                !
 ! D40   D(7,9,16,17)           60.0            estimate D2E/DX2                !
 ! D41   D(7,9,16,18)          180.0            estimate D2E/DX2                !
 ! D42   D(7,9,16,19)          -60.0            estimate D2E/DX2                !
 ! D43   D(10,9,16,17)         -60.0            estimate D2E/DX2                !
 ! D44   D(10,9,16,18)          60.0            estimate D2E/DX2                !
 ! D45   D(10,9,16,19)         180.0            estimate D2E/DX2                !
 ! D46   D(11,9,16,17)        -180.0            estimate D2E/DX2                !
 ! D47   D(11,9,16,18)         -60.0            estimate D2E/DX2                !
 ! D48   D(11,9,16,19)          60.0            estimate D2E/DX2                !
 --------------------------------------------------------------------------------
 Trust Radius=3.00D-01 FncErr=1.00D-07 GrdErr=1.00D-06 EigMax=2.50D+02 EigMin=1.00D-04
 Number of steps in this run=    116 maximum allowed number of steps=    120.
 GradGradGradGradGradGradGradGradGradGradGradGradGradGradGradGradGradGrad

 Leave Link  103 at Mon Dec 22 19:04:39 2025, MaxMem=  6710886400 cpu:               0.1 elap:               0.0
 (Enter /opt/software/gaussian/g16/l202.exe)
                          Input orientation:                          
 ---------------------------------------------------------------------
 Center     Atomic      Atomic             Coordinates (Angstroms)
 Number     Number       Type             X           Y           Z
 ---------------------------------------------------------------------
      1          6           0       -1.761365   -0.740477   -1.133475
      2          1           0       -1.398137   -0.578865   -2.126876
      3          6           0       -2.340161   -1.860388   -0.663996
      4          1           0       -2.525531   -2.760266   -1.212409
      5          6           0       -2.276586   -0.363061    1.058898
      6          1           0       -2.387312    0.096561    2.018787
      7          7           0       -1.723598    0.216852   -0.022397
      8          7           0       -2.668522   -1.611483    0.744061
      9          6           0       -1.174547    1.579233   -0.080376
     10          1           0       -0.796354    1.852636    0.882494
     11          1           0       -0.381658    1.613992   -0.798024
     12          6           0       -3.316169   -2.564598    1.656763
     13          1           0       -3.057271   -3.563059    1.372252
     14          1           0       -2.984694   -2.381594    2.657530
     15          1           0       -4.377958   -2.442904    1.604855
     16          6           0       -2.284835    2.562967   -0.494054
     17          1           0       -3.077724    2.528208    0.223593
     18          1           0       -1.885186    3.554632   -0.536257
     19          1           0       -2.663029    2.289564   -1.456925
     20         17           0       -4.444670   -0.017178    0.462022
 ---------------------------------------------------------------------
                    Distance matrix (angstroms):
                    1          2          3          4          5
     1  C    0.000000
     2  H    1.070000   0.000000
     3  C    1.345219   2.160955   0.000000
     4  H    2.160956   2.620263   1.070000   0.000000
     5  C    2.283505   3.311707   2.283505   3.311707   0.000000
     6  H    3.321024   4.315228   3.321024   4.315229   1.070000
     7  N    1.467105   2.273306   2.259806   3.304914   1.345843
     8  N    2.259806   3.304914   1.467105   2.273307   1.345844
     9  C    2.614273   2.982539   3.678350   4.683792   2.506978
    10  H    3.423392   3.915438   4.308308   5.353274   2.670490
    11  H    2.749481   2.758206   3.990615   4.888972   3.308723
    12  C    3.678350   4.683792   2.614274   2.982539   2.506979
    13  H    3.990615   4.888971   2.749481   2.758205   3.308723
    14  H    4.308308   5.353274   3.423392   3.915437   2.670490
    15  H    4.152501   5.126382   3.104775   3.386618   3.006590
    16  C    3.405234   3.650130   4.426964   5.376874   3.312607
    17  H    3.776074   4.242596   4.537795   5.507720   3.114320
    18  H    4.338198   4.455680   5.435601   6.383194   4.248062
    19  H    3.177856   3.205724   4.237344   5.057616   3.676292
    20  Cl   3.204512   4.037233   3.015676   3.743173   2.275189
                    6          7          8          9         10
     6  H    0.000000
     7  N    2.149749   0.000000
     8  N    2.149749   2.196167   0.000000
     9  C    2.841761   1.470000   3.618332   0.000000
    10  H    2.627948   2.086720   3.940089   1.070000   0.000000
    11  H    3.776198   2.086720   4.243991   1.070000   1.747303
    12  C    2.841761   3.618332   1.470000   4.977503   5.144017
    13  H    3.776199   4.243991   2.086720   5.665505   5.889088
    14  H    2.627948   3.940088   2.086720   5.144017   5.086088
    15  H    3.253136   4.094860   2.086720   5.411047   5.639269
    16  C    3.522504   2.457987   4.371061   1.540000   2.148263
    17  H    3.100370   2.690081   4.192299   2.148263   2.468846
    18  H    4.328814   3.380966   5.379737   2.148263   2.468846
    19  H    4.118963   2.690081   4.479122   2.148263   3.024610
    20  Cl   2.582475   2.773746   2.403343   3.679189   4.121070
                   11         12         13         14         15
    11  H    0.000000
    12  C    5.665505   0.000000
    13  H    6.218590   1.070000   0.000000
    14  H    5.889088   1.070000   1.747303   0.000000
    15  H    6.180829   1.070000   1.747303   1.747303   0.000000
    16  C    2.148263   5.655226   6.450423   5.905165   5.817674
    17  H    3.024610   5.295989   6.198659   5.480771   5.320756
    18  H    2.468846   6.655976   7.461750   6.829932   6.838765
    19  H    2.468846   5.803838   6.512517   6.233131   5.891667
    20  Cl   4.555930   3.031546   3.914929   3.541504   2.682287
                   16         17         18         19         20
    16  C    0.000000
    17  H    1.070000   0.000000
    18  H    1.070000   1.747303   0.000000
    19  H    1.070000   1.747303   1.747303   0.000000
    20  Cl   3.498016   2.899031   4.506145   3.489651   0.000000
 Stoichiometry    C6H11ClN2
 Framework group  C1[X(C6H11ClN2)]
 Deg. of freedom    54
 Full point group                 C1      NOp   1
 Largest Abelian subgroup         C1      NOp   1
 Largest concise Abelian subgroup C1      NOp   1
                         Standard orientation:                         
 ---------------------------------------------------------------------
 Center     Atomic      Atomic             Coordinates (Angstroms)
 Number     Number       Type             X           Y           Z
 ---------------------------------------------------------------------
      1          6           0        0.289347   -1.467273   -0.867805
      2          1           0        0.863438   -2.036732   -1.568545
      3          6           0       -1.047291   -1.315670   -0.862205
      4          1           0       -1.740110   -1.741439   -1.557635
      5          6           0       -0.228222   -0.127838    0.907703
      6          1           0       -0.154305    0.491760    1.776918
      7          7           0        0.809101   -0.702184    0.271007
      8          7           0       -1.373056   -0.454683    0.280150
      9          6           0        2.223807   -0.583049    0.652208
     10          1           0        2.297872   -0.450920    1.711432
     11          1           0        2.746319   -1.471932    0.366257
     12          6           0       -2.721943   -0.022102    0.672932
     13          1           0       -3.432601   -0.771118    0.392147
     14          1           0       -2.755770    0.122263    1.732608
     15          1           0       -2.959301    0.897421    0.179942
     16          6           0        2.847253    0.630918   -0.061373
     17          1           0        2.324741    1.519801    0.224578
     18          1           0        3.877005    0.717635    0.216100
     19          1           0        2.773187    0.498789   -1.120598
     20         17           0       -0.474735    1.625449   -0.521180
 ---------------------------------------------------------------------
 Rotational constants (GHZ):           2.1250829           1.1418479           0.9195005
 Leave Link  202 at Mon Dec 22 19:04:39 2025, MaxMem=  6710886400 cpu:               0.0 elap:               0.0
 (Enter /opt/software/gaussian/g16/l301.exe)
 Standard basis: 6-311+G(d,p) (5D, 7F)
 Ernie: Thresh=  0.10000D-02 Tol=  0.10000D-05 Strict=F.
 There are   281 symmetry adapted cartesian basis functions of A   symmetry.
 There are   272 symmetry adapted basis functions of A   symmetry.
   272 basis functions,   429 primitive gaussians,   281 cartesian basis functions
    39 alpha electrons       39 beta electrons
       nuclear repulsion energy       560.6660228895 Hartrees.
 IExCor=  402 DFT=T Ex+Corr=B3LYP ExCW=0 ScaHFX=  0.200000
 ScaDFX=  0.800000  0.720000  1.000000  0.810000 ScalE2=  1.000000  1.000000
 IRadAn=      5 IRanWt=     -1 IRanGd=            0 ICorTp=0 IEmpDi=131
 NAtoms=   20 NActive=   20 NUniq=   20 SFac= 1.00D+00 NAtFMM=   60 NAOKFM=F Big=F
 Integral buffers will be    131072 words long.
 Raffenetti 2 integral format.
 Two-electron integral symmetry is turned on.
 R6Disp:  Grimme-D3 Dispersion energy=       -0.0181687882 Hartrees.
 Nuclear repulsion after empirical dispersion term =      560.6478541013 Hartrees.
 Leave Link  301 at Mon Dec 22 19:04:39 2025, MaxMem=  6710886400 cpu:               0.2 elap:               0.0
 (Enter /opt/software/gaussian/g16/l302.exe)
 NPDir=0 NMtPBC=     1 NCelOv=     1 NCel=       1 NClECP=     1 NCelD=      1
         NCelK=      1 NCelE2=     1 NClLst=     1 CellRange=     0.0.
 One-electron integrals computed using PRISM.
 One-electron integral symmetry used in STVInt
 NBasis=   272 RedAO= T EigKep=  2.06D-05  NBF=   272
 NBsUse=   272 1.00D-06 EigRej= -1.00D+00 NBFU=   272
 Precomputing XC quadrature grid using
 IXCGrd= 4 IRadAn=           5 IRanWt=          -1 IRanGd=           0 AccXCQ= 0.00D+00.
 Generated NRdTot=       0 NPtTot=           0 NUsed=           0 NTot=          32
 NSgBfM=   281   281   281   281   281 MxSgAt=    20 MxSgA2=    20.
 Leave Link  302 at Mon Dec 22 19:04:40 2025, MaxMem=  6710886400 cpu:               1.0 elap:               0.1
 (Enter /opt/software/gaussian/g16/l303.exe)
 DipDrv:  MaxL=1.
 Leave Link  303 at Mon Dec 22 19:04:40 2025, MaxMem=  6710886400 cpu:               0.1 elap:               0.0
 (Enter /opt/software/gaussian/g16/l401.exe)
 ExpMin= 4.38D-02 ExpMax= 1.06D+05 ExpMxC= 3.62D+03 IAcc=3 IRadAn=         5 AccDes= 0.00D+00
 Harris functional with IExCor=  402 and IRadAn=       5 diagonalized for initial guess.
 HarFok:  IExCor=  402 AccDes= 0.00D+00 IRadAn=         5 IDoV= 1 UseB2=F ITyADJ=14
 ICtDFT=  3500011 ScaDFX=  1.000000  1.000000  1.000000  1.000000
 FoFCou: FMM=F IPFlag=           0 FMFlag=      100000 FMFlg1=           0
         NFxFlg=           0 DoJE=T BraDBF=F KetDBF=T FulRan=T
         wScrn=  0.000000 ICntrl=       500 IOpCl=  0 I1Cent=   200000004 NGrid=           0
         NMat0=    1 NMatS0=      1 NMatT0=    0 NMatD0=    1 NMtDS0=    0 NMtDT0=    0
 Petite list used in FoFCou.
 Harris En= -804.981857310952    
 JPrj=0 DoOrth=F DoCkMO=F.
 Leave Link  401 at Mon Dec 22 19:04:40 2025, MaxMem=  6710886400 cpu:               3.5 elap:               0.2
 (Enter /opt/software/gaussian/g16/l502.exe)
 Integral symmetry usage will be decided dynamically.
 Closed shell SCF:
 Using DIIS extrapolation, IDIIS=  1040.
 NGot=  6710886400 LenX=  6710720673 LenY=  6710641271
 Requested convergence on RMS density matrix=1.00D-08 within 128 cycles.
 Requested convergence on MAX density matrix=1.00D-06.
 Requested convergence on             energy=1.00D-06.
 No special actions if energy rises.
 Fock matrices will be formed incrementally for  20 cycles.

 Cycle   1  Pass 1  IDiag  1:
 FoFJK:  IHMeth= 1 ICntrl=       0 DoSepK=F KAlg= 0 I1Cent=           0 FoldK=F
 IRaf= 940000000 NMat=       1 IRICut=       1 DoRegI=T DoRafI=F ISym2E= 0 IDoP0=0 IntGTp=1.
 FoFCou: FMM=F IPFlag=           0 FMFlag=      100000 FMFlg1=           0
         NFxFlg=           0 DoJE=F BraDBF=F KetDBF=F FulRan=T
         wScrn=  0.000000 ICntrl=         0 IOpCl=  0 I1Cent=           0 NGrid=           0
         NMat0=    1 NMatS0=      1 NMatT0=    0 NMatD0=    1 NMtDS0=    0 NMtDT0=    0
 Symmetry not used in FoFCou.
 E= -804.826063182973    
 DIIS: error= 2.07D-02 at cycle   1 NSaved=   1.
 NSaved= 1 IEnMin= 1 EnMin= -804.826063182973     IErMin= 1 ErrMin= 2.07D-02
 ErrMax= 2.07D-02  0.00D+00 EMaxC= 1.00D-01 BMatC= 2.42D-01 BMatP= 2.42D-01
 IDIUse=3 WtCom= 7.93D-01 WtEn= 2.07D-01
 Coeff-Com:  0.100D+01
 Coeff-En:   0.100D+01
 Coeff:      0.100D+01
 Gap=     0.156 Goal=   None    Shift=    0.000
 GapD=    0.156 DampG=1.000 DampE=0.500 DampFc=0.5000 IDamp=-1.
 Damping current iteration by 5.00D-01
 RMSDP=1.06D-02 MaxDP=7.13D-01              OVMax= 1.75D-01

 Cycle   2  Pass 1  IDiag  1:
 RMSU=  5.31D-03    CP:  1.02D+00
 E= -804.921618192652     Delta-E=       -0.095555009678 Rises=F Damp=T
 DIIS: error= 5.94D-03 at cycle   2 NSaved=   2.
 NSaved= 2 IEnMin= 2 EnMin= -804.921618192652     IErMin= 2 ErrMin= 5.94D-03
 ErrMax= 5.94D-03  0.00D+00 EMaxC= 1.00D-01 BMatC= 2.23D-02 BMatP= 2.42D-01
 IDIUse=3 WtCom= 9.41D-01 WtEn= 5.94D-02
 Coeff-Com: -0.713D-02 0.101D+01
 Coeff-En:   0.682D-01 0.932D+00
 Coeff:     -0.265D-02 0.100D+01
 Gap=     0.168 Goal=   None    Shift=    0.000
 RMSDP=2.34D-03 MaxDP=1.79D-01 DE=-9.56D-02 OVMax= 1.05D-01

 Cycle   3  Pass 1  IDiag  1:
 RMSU=  2.11D-03    CP:  1.01D+00  8.09D-01
 E= -805.027552967925     Delta-E=       -0.105934775273 Rises=F Damp=F
 DIIS: error= 5.23D-03 at cycle   3 NSaved=   3.
 NSaved= 3 IEnMin= 3 EnMin= -805.027552967925     IErMin= 3 ErrMin= 5.23D-03
 ErrMax= 5.23D-03  0.00D+00 EMaxC= 1.00D-01 BMatC= 1.04D-02 BMatP= 2.23D-02
 IDIUse=3 WtCom= 9.48D-01 WtEn= 5.23D-02
 Coeff-Com: -0.759D-01 0.421D+00 0.655D+00
 Coeff-En:   0.000D+00 0.000D+00 0.100D+01
 Coeff:     -0.720D-01 0.399D+00 0.673D+00
 Gap=     0.148 Goal=   None    Shift=    0.000
 RMSDP=1.51D-03 MaxDP=7.78D-02 DE=-1.06D-01 OVMax= 4.45D-02

 Cycle   4  Pass 1  IDiag  1:
 RMSU=  8.66D-04    CP:  1.01D+00  1.02D+00  7.46D-01
 E= -805.033892127293     Delta-E=       -0.006339159368 Rises=F Damp=F
 DIIS: error= 3.21D-03 at cycle   4 NSaved=   4.
 NSaved= 4 IEnMin= 4 EnMin= -805.033892127293     IErMin= 4 ErrMin= 3.21D-03
 ErrMax= 3.21D-03  0.00D+00 EMaxC= 1.00D-01 BMatC= 3.20D-03 BMatP= 1.04D-02
 IDIUse=3 WtCom= 9.68D-01 WtEn= 3.21D-02
 Coeff-Com: -0.430D-01 0.141D+00 0.406D+00 0.496D+00
 Coeff-En:   0.000D+00 0.000D+00 0.258D+00 0.742D+00
 Coeff:     -0.416D-01 0.136D+00 0.402D+00 0.504D+00
 Gap=     0.153 Goal=   None    Shift=    0.000
 RMSDP=9.50D-04 MaxDP=5.82D-02 DE=-6.34D-03 OVMax= 1.90D-02

 Cycle   5  Pass 1  IDiag  1:
 RMSU=  5.33D-04    CP:  9.99D-01  8.77D-01  6.91D-01  8.27D-01
 E= -805.036939938531     Delta-E=       -0.003047811238 Rises=F Damp=F
 DIIS: error= 7.23D-04 at cycle   5 NSaved=   5.
 NSaved= 5 IEnMin= 5 EnMin= -805.036939938531     IErMin= 5 ErrMin= 7.23D-04
 ErrMax= 7.23D-04  0.00D+00 EMaxC= 1.00D-01 BMatC= 1.61D-04 BMatP= 3.20D-03
 IDIUse=3 WtCom= 9.93D-01 WtEn= 7.23D-03
 Coeff-Com: -0.156D-01 0.394D-01 0.147D+00 0.264D+00 0.565D+00
 Coeff-En:   0.000D+00 0.000D+00 0.000D+00 0.000D+00 0.100D+01
 Coeff:     -0.155D-01 0.391D-01 0.146D+00 0.262D+00 0.568D+00
 Gap=     0.152 Goal=   None    Shift=    0.000
 RMSDP=2.79D-04 MaxDP=1.26D-02 DE=-3.05D-03 OVMax= 3.32D-03

 Cycle   6  Pass 1  IDiag  1:
 RMSU=  8.26D-05    CP:  1.00D+00  9.02D-01  7.52D-01  7.91D-01  6.47D-01
 E= -805.037076211474     Delta-E=       -0.000136272943 Rises=F Damp=F
 DIIS: error= 1.96D-04 at cycle   6 NSaved=   6.
 NSaved= 6 IEnMin= 6 EnMin= -805.037076211474     IErMin= 6 ErrMin= 1.96D-04
 ErrMax= 1.96D-04  0.00D+00 EMaxC= 1.00D-01 BMatC= 1.77D-05 BMatP= 1.61D-04
 IDIUse=3 WtCom= 9.98D-01 WtEn= 1.96D-03
 Coeff-Com: -0.615D-02 0.126D-01 0.562D-01 0.123D+00 0.337D+00 0.478D+00
 Coeff-En:   0.000D+00 0.000D+00 0.000D+00 0.000D+00 0.000D+00 0.100D+01
 Coeff:     -0.614D-02 0.126D-01 0.560D-01 0.122D+00 0.336D+00 0.479D+00
 Gap=     0.151 Goal=   None    Shift=    0.000
 RMSDP=6.24D-05 MaxDP=4.18D-03 DE=-1.36D-04 OVMax= 1.58D-03

 Cycle   7  Pass 1  IDiag  1:
 RMSU=  2.51D-05    CP:  1.00D+00  9.11D-01  7.53D-01  7.92D-01  6.34D-01
                    CP:  5.97D-01
 E= -805.037090721760     Delta-E=       -0.000014510286 Rises=F Damp=F
 DIIS: error= 7.15D-05 at cycle   7 NSaved=   7.
 NSaved= 7 IEnMin= 7 EnMin= -805.037090721760     IErMin= 7 ErrMin= 7.15D-05
 ErrMax= 7.15D-05  0.00D+00 EMaxC= 1.00D-01 BMatC= 1.57D-06 BMatP= 1.77D-05
 IDIUse=1 WtCom= 1.00D+00 WtEn= 0.00D+00
 Coeff-Com: -0.197D-02 0.320D-02 0.171D-01 0.452D-01 0.141D+00 0.275D+00
 Coeff-Com:  0.520D+00
 Coeff:     -0.197D-02 0.320D-02 0.171D-01 0.452D-01 0.141D+00 0.275D+00
 Coeff:      0.520D+00
 Gap=     0.151 Goal=   None    Shift=    0.000
 RMSDP=2.11D-05 MaxDP=1.23D-03 DE=-1.45D-05 OVMax= 4.29D-04

 Cycle   8  Pass 1  IDiag  1:
 RMSU=  6.49D-06    CP:  1.00D+00  9.09D-01  7.50D-01  8.01D-01  6.53D-01
                    CP:  6.68D-01  6.24D-01
 E= -805.037091961284     Delta-E=       -0.000001239524 Rises=F Damp=F
 DIIS: error= 2.84D-05 at cycle   8 NSaved=   8.
 NSaved= 8 IEnMin= 8 EnMin= -805.037091961284     IErMin= 8 ErrMin= 2.84D-05
 ErrMax= 2.84D-05  0.00D+00 EMaxC= 1.00D-01 BMatC= 2.46D-07 BMatP= 1.57D-06
 IDIUse=1 WtCom= 1.00D+00 WtEn= 0.00D+00
 Coeff-Com: -0.414D-03 0.421D-03 0.320D-02 0.115D-01 0.409D-01 0.962D-01
 Coeff-Com:  0.317D+00 0.531D+00
 Coeff:     -0.414D-03 0.421D-03 0.320D-02 0.115D-01 0.409D-01 0.962D-01
 Coeff:      0.317D+00 0.531D+00
 Gap=     0.151 Goal=   None    Shift=    0.000
 RMSDP=6.21D-06 MaxDP=5.30D-04 DE=-1.24D-06 OVMax= 1.82D-04

 Cycle   9  Pass 1  IDiag  1:
 RMSU=  2.30D-06    CP:  1.00D+00  9.09D-01  7.49D-01  8.01D-01  6.58D-01
                    CP:  6.39D-01  7.20D-01  8.82D-01
 E= -805.037092165793     Delta-E=       -0.000000204509 Rises=F Damp=F
 DIIS: error= 8.37D-06 at cycle   9 NSaved=   9.
 NSaved= 9 IEnMin= 9 EnMin= -805.037092165793     IErMin= 9 ErrMin= 8.37D-06
 ErrMax= 8.37D-06  0.00D+00 EMaxC= 1.00D-01 BMatC= 1.88D-08 BMatP= 2.46D-07
 IDIUse=1 WtCom= 1.00D+00 WtEn= 0.00D+00
 Coeff-Com:  0.891D-05-0.152D-03-0.239D-03 0.913D-03 0.544D-02 0.152D-01
 Coeff-Com:  0.105D+00 0.285D+00 0.589D+00
 Coeff:      0.891D-05-0.152D-03-0.239D-03 0.913D-03 0.544D-02 0.152D-01
 Coeff:      0.105D+00 0.285D+00 0.589D+00
 Gap=     0.151 Goal=   None    Shift=    0.000
 RMSDP=2.06D-06 MaxDP=1.22D-04 DE=-2.05D-07 OVMax= 3.28D-05

 Cycle  10  Pass 1  IDiag  1:
 RMSU=  7.57D-07    CP:  1.00D+00  9.09D-01  7.49D-01  8.02D-01  6.56D-01
                    CP:  6.58D-01  7.08D-01  8.81D-01  7.72D-01
 E= -805.037092179987     Delta-E=       -0.000000014194 Rises=F Damp=F
 DIIS: error= 2.12D-06 at cycle  10 NSaved=  10.
 NSaved=10 IEnMin=10 EnMin= -805.037092179987     IErMin=10 ErrMin= 2.12D-06
 ErrMax= 2.12D-06  0.00D+00 EMaxC= 1.00D-01 BMatC= 1.45D-09 BMatP= 1.88D-08
 IDIUse=1 WtCom= 1.00D+00 WtEn= 0.00D+00
 Coeff-Com:  0.608D-04-0.142D-03-0.559D-03-0.920D-03-0.167D-02-0.303D-02
 Coeff-Com:  0.231D-01 0.984D-01 0.284D+00 0.600D+00
 Coeff:      0.608D-04-0.142D-03-0.559D-03-0.920D-03-0.167D-02-0.303D-02
 Coeff:      0.231D-01 0.984D-01 0.284D+00 0.600D+00
 Gap=     0.151 Goal=   None    Shift=    0.000
 RMSDP=9.44D-07 MaxDP=5.87D-05 DE=-1.42D-08 OVMax= 2.37D-05

 Cycle  11  Pass 1  IDiag  1:
 RMSU=  2.47D-07    CP:  1.00D+00  9.09D-01  7.50D-01  8.02D-01  6.56D-01
                    CP:  6.56D-01  7.20D-01  9.02D-01  7.93D-01  8.28D-01
 E= -805.037092181384     Delta-E=       -0.000000001397 Rises=F Damp=F
 DIIS: error= 7.53D-07 at cycle  11 NSaved=  11.
 NSaved=11 IEnMin=11 EnMin= -805.037092181384     IErMin=11 ErrMin= 7.53D-07
 ErrMax= 7.53D-07  0.00D+00 EMaxC= 1.00D-01 BMatC= 1.77D-10 BMatP= 1.45D-09
 IDIUse=1 WtCom= 1.00D+00 WtEn= 0.00D+00
 Coeff-Com:  0.203D-04-0.383D-04-0.174D-03-0.422D-03-0.103D-02-0.300D-02
 Coeff-Com:  0.660D-04 0.182D-01 0.590D-01 0.299D+00 0.628D+00
 Coeff:      0.203D-04-0.383D-04-0.174D-03-0.422D-03-0.103D-02-0.300D-02
 Coeff:      0.660D-04 0.182D-01 0.590D-01 0.299D+00 0.628D+00
 Gap=     0.151 Goal=   None    Shift=    0.000
 RMSDP=3.00D-07 MaxDP=2.52D-05 DE=-1.40D-09 OVMax= 6.01D-06

 Cycle  12  Pass 1  IDiag  1:
 RMSU=  7.85D-08    CP:  1.00D+00  9.09D-01  7.50D-01  8.02D-01  6.56D-01
                    CP:  6.56D-01  7.21D-01  9.01D-01  8.13D-01  8.97D-01
                    CP:  7.97D-01
 E= -805.037092181553     Delta-E=       -0.000000000169 Rises=F Damp=F
 DIIS: error= 1.63D-07 at cycle  12 NSaved=  12.
 NSaved=12 IEnMin=12 EnMin= -805.037092181553     IErMin=12 ErrMin= 1.63D-07
 ErrMax= 1.63D-07  0.00D+00 EMaxC= 1.00D-01 BMatC= 1.24D-11 BMatP= 1.77D-10
 IDIUse=1 WtCom= 1.00D+00 WtEn= 0.00D+00
 Coeff-Com:  0.640D-05-0.101D-04-0.545D-04-0.153D-03-0.373D-03-0.119D-02
 Coeff-Com: -0.136D-02 0.298D-02 0.359D-02 0.956D-01 0.274D+00 0.627D+00
 Coeff:      0.640D-05-0.101D-04-0.545D-04-0.153D-03-0.373D-03-0.119D-02
 Coeff:     -0.136D-02 0.298D-02 0.359D-02 0.956D-01 0.274D+00 0.627D+00
 Gap=     0.151 Goal=   None    Shift=    0.000
 RMSDP=5.45D-08 MaxDP=3.02D-06 DE=-1.69D-10 OVMax= 1.50D-06

 Cycle  13  Pass 1  IDiag  1:
 RMSU=  2.19D-08    CP:  1.00D+00  9.09D-01  7.50D-01  8.02D-01  6.56D-01
                    CP:  6.57D-01  7.21D-01  9.03D-01  8.14D-01  9.12D-01
                    CP:  8.28D-01  1.00D+00
 E= -805.037092181566     Delta-E=       -0.000000000013 Rises=F Damp=F
 DIIS: error= 5.28D-08 at cycle  13 NSaved=  13.
 NSaved=13 IEnMin=13 EnMin= -805.037092181566     IErMin=13 ErrMin= 5.28D-08
 ErrMax= 5.28D-08  0.00D+00 EMaxC= 1.00D-01 BMatC= 1.28D-12 BMatP= 1.24D-11
 IDIUse=1 WtCom= 1.00D+00 WtEn= 0.00D+00
 Coeff-Com: -0.301D-06 0.130D-05 0.186D-05-0.589D-05-0.767D-05-0.128D-03
 Coeff-Com: -0.616D-03-0.786D-03-0.790D-02 0.196D-02 0.283D-01 0.245D+00
 Coeff-Com:  0.734D+00
 Coeff:     -0.301D-06 0.130D-05 0.186D-05-0.589D-05-0.767D-05-0.128D-03
 Coeff:     -0.616D-03-0.786D-03-0.790D-02 0.196D-02 0.283D-01 0.245D+00
 Coeff:      0.734D+00
 Gap=     0.151 Goal=   None    Shift=    0.000
 RMSDP=1.90D-08 MaxDP=1.72D-06 DE=-1.30D-11 OVMax= 3.24D-07

 Cycle  14  Pass 1  IDiag  1:
 RMSU=  5.88D-09    CP:  1.00D+00  9.09D-01  7.50D-01  8.02D-01  6.56D-01
                    CP:  6.57D-01  7.21D-01  9.03D-01  8.14D-01  9.21D-01
                    CP:  8.43D-01  1.07D+00  1.03D+00
 E= -805.037092181569     Delta-E=       -0.000000000003 Rises=F Damp=F
 DIIS: error= 1.19D-08 at cycle  14 NSaved=  14.
 NSaved=14 IEnMin=14 EnMin= -805.037092181569     IErMin=14 ErrMin= 1.19D-08
 ErrMax= 1.19D-08  0.00D+00 EMaxC= 1.00D-01 BMatC= 6.95D-14 BMatP= 1.28D-12
 IDIUse=1 WtCom= 1.00D+00 WtEn= 0.00D+00
 Coeff-Com: -0.437D-06 0.953D-06 0.348D-05 0.628D-05 0.179D-04 0.162D-04
 Coeff-Com: -0.142D-03-0.382D-03-0.334D-02-0.482D-02-0.849D-02 0.474D-01
 Coeff-Com:  0.263D+00 0.706D+00
 Coeff:     -0.437D-06 0.953D-06 0.348D-05 0.628D-05 0.179D-04 0.162D-04
 Coeff:     -0.142D-03-0.382D-03-0.334D-02-0.482D-02-0.849D-02 0.474D-01
 Coeff:      0.263D+00 0.706D+00
 Gap=     0.151 Goal=   None    Shift=    0.000
 RMSDP=4.60D-09 MaxDP=2.56D-07 DE=-2.96D-12 OVMax= 1.37D-07

 SCF Done:  E(RB3LYP) =  -805.037092182     A.U. after   14 cycles
            NFock= 14  Conv=0.46D-08     -V/T= 2.0029
 KE= 8.026774828175D+02 PE=-3.017282119501D+03 EE= 8.489196904011D+02
 Leave Link  502 at Mon Dec 22 19:04:47 2025, MaxMem=  6710886400 cpu:             107.8 elap:               6.8
 (Enter /opt/software/gaussian/g16/l601.exe)
 Copying SCF densities to generalized density rwf, IOpCl= 0 IROHF=0.

 **********************************************************************

            Population analysis using the SCF Density.

 **********************************************************************

 Orbital symmetries:
       Occupied  (A) (A) (A) (A) (A) (A) (A) (A) (A) (A) (A) (A)
                 (A) (A) (A) (A) (A) (A) (A) (A) (A) (A) (A) (A)
                 (A) (A) (A) (A) (A) (A) (A) (A) (A) (A) (A) (A)
                 (A) (A) (A)
       Virtual   (A) (A) (A) (A) (A) (A) (A) (A) (A) (A) (A) (A)
                 (A) (A) (A) (A) (A) (A) (A) (A) (A) (A) (A) (A)
                 (A) (A) (A) (A) (A) (A) (A) (A) (A) (A) (A) (A)
                 (A) (A) (A) (A) (A) (A) (A) (A) (A) (A) (A) (A)
                 (A) (A) (A) (A) (A) (A) (A) (A) (A) (A) (A) (A)
                 (A) (A) (A) (A) (A) (A) (A) (A) (A) (A) (A) (A)
                 (A) (A) (A) (A) (A) (A) (A) (A) (A) (A) (A) (A)
                 (A) (A) (A) (A) (A) (A) (A) (A) (A) (A) (A) (A)
                 (A) (A) (A) (A) (A) (A) (A) (A) (A) (A) (A) (A)
                 (A) (A) (A) (A) (A) (A) (A) (A) (A) (A) (A) (A)
                 (A) (A) (A) (A) (A) (A) (A) (A) (A) (A) (A) (A)
                 (A) (A) (A) (A) (A) (A) (A) (A) (A) (A) (A) (A)
                 (A) (A) (A) (A) (A) (A) (A) (A) (A) (A) (A) (A)
                 (A) (A) (A) (A) (A) (A) (A) (A) (A) (A) (A) (A)
                 (A) (A) (A) (A) (A) (A) (A) (A) (A) (A) (A) (A)
                 (A) (A) (A) (A) (A) (A) (A) (A) (A) (A) (A) (A)
                 (A) (A) (A) (A) (A) (A) (A) (A) (A) (A) (A) (A)
                 (A) (A) (A) (A) (A) (A) (A) (A) (A) (A) (A) (A)
                 (A) (A) (A) (A) (A) (A) (A) (A) (A) (A) (A) (A)
                 (A) (A) (A) (A) (A)
 The electronic state is 1-A.
 Alpha  occ. eigenvalues -- -101.39810 -14.38941 -14.38404 -10.28635 -10.23122
 Alpha  occ. eigenvalues --  -10.23037 -10.22811 -10.21394 -10.15827  -9.31596
 Alpha  occ. eigenvalues --   -7.07526  -7.07308  -7.07290  -1.04759  -0.93791
 Alpha  occ. eigenvalues --   -0.80972  -0.78231  -0.73368  -0.68257  -0.65753
 Alpha  occ. eigenvalues --   -0.63264  -0.62100  -0.56059  -0.50116  -0.49081
 Alpha  occ. eigenvalues --   -0.48065  -0.47536  -0.46481  -0.44395  -0.43977
 Alpha  occ. eigenvalues --   -0.41802  -0.39536  -0.38621  -0.37355  -0.30019
 Alpha  occ. eigenvalues --   -0.29384  -0.20933  -0.20504  -0.17613
 Alpha virt. eigenvalues --   -0.02493  -0.00695   0.00077   0.00569   0.01344
 Alpha virt. eigenvalues --    0.02283   0.02645   0.03219   0.04341   0.05138
 Alpha virt. eigenvalues --    0.05683   0.06610   0.07044   0.07306   0.08321
 Alpha virt. eigenvalues --    0.09137   0.09199   0.10008   0.11293   0.11653
 Alpha virt. eigenvalues --    0.12882   0.13356   0.13825   0.14050   0.14702
 Alpha virt. eigenvalues --    0.14962   0.15514   0.16198   0.16409   0.17254
 Alpha virt. eigenvalues --    0.17793   0.18295   0.18500   0.19020   0.19605
 Alpha virt. eigenvalues --    0.20772   0.20963   0.21973   0.22247   0.23328
 Alpha virt. eigenvalues --    0.23537   0.23619   0.25256   0.25503   0.26672
 Alpha virt. eigenvalues --    0.27093   0.27986   0.28807   0.29555   0.29951
 Alpha virt. eigenvalues --    0.32194   0.34082   0.35960   0.37285   0.38310
 Alpha virt. eigenvalues --    0.39698   0.40367   0.43289   0.44173   0.44737
 Alpha virt. eigenvalues --    0.46114   0.47849   0.49661   0.50825   0.53088
 Alpha virt. eigenvalues --    0.53866   0.54592   0.56361   0.57370   0.58696
 Alpha virt. eigenvalues --    0.59043   0.59933   0.60525   0.62216   0.63339
 Alpha virt. eigenvalues --    0.63930   0.64935   0.65433   0.66641   0.67626
 Alpha virt. eigenvalues --    0.68209   0.69286   0.70641   0.72973   0.73230
 Alpha virt. eigenvalues --    0.74124   0.75395   0.77883   0.80234   0.81829
 Alpha virt. eigenvalues --    0.82567   0.84732   0.87649   0.92434   0.92951
 Alpha virt. eigenvalues --    0.93887   0.94558   0.96417   0.98100   1.01929
 Alpha virt. eigenvalues --    1.03257   1.03442   1.04745   1.07932   1.09145
 Alpha virt. eigenvalues --    1.12216   1.12558   1.12867   1.17703   1.18153
 Alpha virt. eigenvalues --    1.21912   1.27968   1.29186   1.33316   1.37383
 Alpha virt. eigenvalues --    1.39463   1.43203   1.44937   1.47320   1.48620
 Alpha virt. eigenvalues --    1.50175   1.51811   1.52172   1.53737   1.54840
 Alpha virt. eigenvalues --    1.55718   1.56880   1.57734   1.58146   1.60569
 Alpha virt. eigenvalues --    1.62541   1.64104   1.64506   1.66294   1.66989
 Alpha virt. eigenvalues --    1.68696   1.69578   1.71850   1.75131   1.77308
 Alpha virt. eigenvalues --    1.78078   1.79613   1.80644   1.84171   1.85521
 Alpha virt. eigenvalues --    1.87469   1.91823   1.96374   2.01377   2.02777
 Alpha virt. eigenvalues --    2.04756   2.08312   2.10022   2.11073   2.14952
 Alpha virt. eigenvalues --    2.16125   2.19903   2.21239   2.26593   2.28622
 Alpha virt. eigenvalues --    2.30593   2.36229   2.38613   2.42296   2.43836
 Alpha virt. eigenvalues --    2.43898   2.45334   2.47770   2.47983   2.49897
 Alpha virt. eigenvalues --    2.50620   2.51927   2.52786   2.54276   2.56445
 Alpha virt. eigenvalues --    2.57325   2.58247   2.58493   2.61089   2.62697
 Alpha virt. eigenvalues --    2.65681   2.67675   2.67871   2.69786   2.71292
 Alpha virt. eigenvalues --    2.72424   2.75025   2.76168   2.80435   2.82826
 Alpha virt. eigenvalues --    2.85318   2.88420   2.92070   2.94088   2.95649
 Alpha virt. eigenvalues --    2.97322   2.98596   3.10490   3.16786   3.25576
 Alpha virt. eigenvalues --    3.39190   3.54296   3.55210   3.61052   3.69713
 Alpha virt. eigenvalues --    3.76750   3.79760   3.82501   3.85329   3.86017
 Alpha virt. eigenvalues --    3.87015   3.88695   3.91170   4.00884   4.09653
 Alpha virt. eigenvalues --    4.23811   4.67359   4.90036   4.94488   5.20488
 Alpha virt. eigenvalues --    9.93554  23.70641  23.86609  23.88473  23.95829
 Alpha virt. eigenvalues --   24.02719  24.18967  26.05808  26.26515  26.52072
 Alpha virt. eigenvalues --   35.46003  35.58924 215.94545
          Condensed to atoms (all electrons):
               1          2          3          4          5          6
     1  C    5.875075   0.454507  -0.130302  -0.072294  -0.709285   0.021114
     2  H    0.454507   0.510062  -0.067036  -0.004457   0.016869  -0.000131
     3  C   -0.130302  -0.067036   5.755250   0.465536   0.179864   0.017803
     4  H   -0.072294  -0.004457   0.465536   0.507936   0.016568  -0.000068
     5  C   -0.709285   0.016869   0.179864   0.016568   7.484408   0.347538
     6  H    0.021114  -0.000131   0.017803  -0.000068   0.347538   0.481504
     7  N   -0.005151  -0.066994   0.289723   0.028906   0.255804  -0.016897
     8  N    0.412384   0.026737  -0.114460  -0.070077  -0.440855  -0.004207
     9  C   -0.062764  -0.016247  -0.073705   0.001130  -0.074485  -0.030192
    10  H    0.000458   0.000053  -0.002859   0.000018   0.012144   0.001865
    11  H    0.002579   0.000078   0.008498   0.000002   0.008467   0.000239
    12  C    0.133859   0.002086  -0.212302  -0.013095  -0.219397  -0.002117
    13  H    0.020656   0.000039  -0.015566  -0.000272  -0.002297  -0.000064
    14  H   -0.009310   0.000014   0.005335  -0.000006   0.037821   0.001975
    15  H    0.005410  -0.000004  -0.002255   0.000019  -0.051737   0.000263
    16  C   -0.036670   0.004027   0.049752  -0.000063   0.003015   0.009888
    17  H   -0.001584  -0.000044  -0.003554   0.000003   0.010125   0.000031
    18  H   -0.001118  -0.000062   0.003118  -0.000001   0.000121  -0.000023
    19  H    0.011842   0.000312  -0.008301  -0.000009  -0.007433  -0.000107
    20  Cl   0.255103  -0.002632  -0.087062  -0.002573  -0.780730  -0.018352
               7          8          9         10         11         12
     1  C   -0.005151   0.412384  -0.062764   0.000458   0.002579   0.133859
     2  H   -0.066994   0.026737  -0.016247   0.000053   0.000078   0.002086
     3  C    0.289723  -0.114460  -0.073705  -0.002859   0.008498  -0.212302
     4  H    0.028906  -0.070077   0.001130   0.000018   0.000002  -0.013095
     5  C    0.255804  -0.440855  -0.074485   0.012144   0.008467  -0.219397
     6  H   -0.016897  -0.004207  -0.030192   0.001865   0.000239  -0.002117
     7  N    7.038707  -0.302260   0.066321  -0.055218  -0.058259  -0.099207
     8  N   -0.302260   7.377837  -0.063523   0.008046  -0.005535   0.341436
     9  C    0.066321  -0.063523   5.658361   0.440294   0.430611  -0.022919
    10  H   -0.055218   0.008046   0.440294   0.540711  -0.031269   0.001790
    11  H   -0.058259  -0.005535   0.430611  -0.031269   0.549438  -0.000600
    12  C   -0.099207   0.341436  -0.022919   0.001790  -0.000600   5.046417
    13  H   -0.013482  -0.064059  -0.001431   0.000007  -0.000001   0.443505
    14  H    0.009628  -0.048956  -0.001760   0.000002   0.000006   0.392629
    15  H    0.004504  -0.023584   0.003495  -0.000001  -0.000002   0.406047
    16  C   -0.030039   0.019662  -0.065654  -0.058269  -0.045181   0.000218
    17  H   -0.010574  -0.001861  -0.015304  -0.006878   0.006593  -0.000724
    18  H    0.021393  -0.000930  -0.064147  -0.004122  -0.003536  -0.000048
    19  H   -0.018888   0.003236   0.001689   0.007413  -0.008968   0.000322
    20  Cl  -0.034006   0.004812   0.092392  -0.004042  -0.005194   0.057108
              13         14         15         16         17         18
     1  C    0.020656  -0.009310   0.005410  -0.036670  -0.001584  -0.001118
     2  H    0.000039   0.000014  -0.000004   0.004027  -0.000044  -0.000062
     3  C   -0.015566   0.005335  -0.002255   0.049752  -0.003554   0.003118
     4  H   -0.000272  -0.000006   0.000019  -0.000063   0.000003  -0.000001
     5  C   -0.002297   0.037821  -0.051737   0.003015   0.010125   0.000121
     6  H   -0.000064   0.001975   0.000263   0.009888   0.000031  -0.000023
     7  N   -0.013482   0.009628   0.004504  -0.030039  -0.010574   0.021393
     8  N   -0.064059  -0.048956  -0.023584   0.019662  -0.001861  -0.000930
     9  C   -0.001431  -0.001760   0.003495  -0.065654  -0.015304  -0.064147
    10  H    0.000007   0.000002  -0.000001  -0.058269  -0.006878  -0.004122
    11  H   -0.000001   0.000006  -0.000002  -0.045181   0.006593  -0.003536
    12  C    0.443505   0.392629   0.406047   0.000218  -0.000724  -0.000048
    13  H    0.557390  -0.029103  -0.031983  -0.000131   0.000000  -0.000000
    14  H   -0.029103   0.538064  -0.028271   0.001147  -0.000001  -0.000000
    15  H   -0.031983  -0.028271   0.456505  -0.001138   0.000015  -0.000000
    16  C   -0.000131   0.001147  -0.001138   5.311166   0.420771   0.416867
    17  H    0.000000  -0.000001   0.000015   0.420771   0.472026  -0.027140
    18  H   -0.000000  -0.000000  -0.000000   0.416867  -0.027140   0.552383
    19  H    0.000001  -0.000003   0.000004   0.399262  -0.019684  -0.028148
    20  Cl  -0.003862  -0.018731   0.038532  -0.032804  -0.008497   0.001611
              19         20
     1  C    0.011842   0.255103
     2  H    0.000312  -0.002632
     3  C   -0.008301  -0.087062
     4  H   -0.000009  -0.002573
     5  C   -0.007433  -0.780730
     6  H   -0.000107  -0.018352
     7  N   -0.018888  -0.034006
     8  N    0.003236   0.004812
     9  C    0.001689   0.092392
    10  H    0.007413  -0.004042
    11  H   -0.008968  -0.005194
    12  C    0.000322   0.057108
    13  H    0.000001  -0.003862
    14  H   -0.000003  -0.018731
    15  H    0.000004   0.038532
    16  C    0.399262  -0.032804
    17  H   -0.019684  -0.008497
    18  H   -0.028148   0.001611
    19  H    0.522041  -0.003707
    20  Cl  -0.003707  18.124278
 Mulliken charges:
               1
     1  C   -0.164506
     2  H    0.142823
     3  C   -0.057475
     4  H    0.142798
     5  C   -0.086523
     6  H    0.189940
     7  N   -0.004009
     8  N   -0.053844
     9  C   -0.202162
    10  H    0.149858
    11  H    0.152035
    12  C   -0.255006
    13  H    0.140653
    14  H    0.149519
    15  H    0.224178
    16  C   -0.365825
    17  H    0.186282
    18  H    0.133783
    19  H    0.149126
    20  Cl  -0.571645
 Sum of Mulliken charges =  -0.00000
 Mulliken charges with hydrogens summed into heavy atoms:
               1
     1  C   -0.021682
     3  C    0.085322
     5  C    0.103417
     7  N   -0.004009
     8  N   -0.053844
     9  C    0.099731
    12  C    0.259345
    16  C    0.103365
    20  Cl  -0.571645
 Electronic spatial extent (au):  <R**2>=           1411.1494
 Charge=              0.0000 electrons
 Dipole moment (field-independent basis, Debye):
    X=              0.5754    Y=             -6.1626    Z=              2.6992  Tot=              6.7524
 Quadrupole moment (field-independent basis, Debye-Ang):
   XX=            -50.0839   YY=            -73.5610   ZZ=            -59.0555
   XY=              1.6460   XZ=             -0.4314   YZ=              8.1708
 Traceless Quadrupole moment (field-independent basis, Debye-Ang):
   XX=             10.8162   YY=            -12.6609   ZZ=              1.8446
   XY=              1.6460   XZ=             -0.4314   YZ=              8.1708
 Octapole moment (field-independent basis, Debye-Ang**2):
  XXX=            -12.3282  YYY=            -23.9243  ZZZ=              7.5268  XYY=              6.2628
  XXY=             -7.9296  XXZ=              4.1219  XZZ=             -1.1640  YZZ=             -7.0410
  YYZ=             -1.3710  XYZ=             -3.4757
 Hexadecapole moment (field-independent basis, Debye-Ang**3):
 XXXX=          -1052.1055 YYYY=           -593.4048 ZZZZ=           -247.1008 XXXY=             -0.8012
 XXXZ=              2.6475 YYYX=              4.0484 YYYZ=             27.3492 ZZZX=             -1.9644
 ZZZY=             20.1544 XXYY=           -273.4206 XXZZ=           -222.5134 YYZZ=           -127.7136
 XXYZ=             11.1985 YYXZ=              0.6620 ZZXY=              1.4443
 N-N= 5.606478541013D+02 E-N=-3.017282120076D+03  KE= 8.026774828175D+02
 No NMR shielding tensors so no spin-rotation constants.
 Leave Link  601 at Mon Dec 22 19:04:47 2025, MaxMem=  6710886400 cpu:               0.6 elap:               0.1
 (Enter /opt/software/gaussian/g16/l701.exe)
 ... and contract with generalized density number  0.
 Compute integral first derivatives.
 R6Disp: Adding Grimme-D3 dispersion energy 1st derivatives to the gradient.
 Leave Link  701 at Mon Dec 22 19:04:47 2025, MaxMem=  6710886400 cpu:               0.7 elap:               0.1
 (Enter /opt/software/gaussian/g16/l702.exe)
 L702 exits ... SP integral derivatives will be done elsewhere.
 Leave Link  702 at Mon Dec 22 19:04:47 2025, MaxMem=  6710886400 cpu:               0.0 elap:               0.0
 (Enter /opt/software/gaussian/g16/l703.exe)
 Integral derivatives from FoFJK, PRISM(SPDF).
 Compute integral first derivatives, UseDBF=F ICtDFT=           0.
 Calling FoFJK, ICntrl=      2127 FMM=F ISym2X=0 I1Cent= 0 IOpClX= 0 NMat=1 NMatS=1 NMatT=0.
 FoFJK:  IHMeth= 1 ICntrl=    2127 DoSepK=F KAlg= 0 I1Cent=           0 FoldK=F
 IRaf=         0 NMat=       1 IRICut=       1 DoRegI=T DoRafI=F ISym2E= 0 IDoP0=0 IntGTp=1.
 FoFCou: FMM=F IPFlag=           0 FMFlag=      100000 FMFlg1=         800
         NFxFlg=           0 DoJE=F BraDBF=F KetDBF=F FulRan=T
         wScrn=  0.000000 ICntrl=      2127 IOpCl=  0 I1Cent=           0 NGrid=           0
         NMat0=    1 NMatS0=      1 NMatT0=    0 NMatD0=    1 NMtDS0=    0 NMtDT0=    0
 Symmetry not used in FoFCou.
 Leave Link  703 at Mon Dec 22 19:04:49 2025, MaxMem=  6710886400 cpu:              27.9 elap:               1.8
 (Enter /opt/software/gaussian/g16/l716.exe)
 Dipole        = 2.26399325D-01-2.42455320D+00 1.06194704D+00
 ***** Axes restored to original set *****
 -------------------------------------------------------------------
 Center     Atomic                   Forces (Hartrees/Bohr)
 Number     Number              X              Y              Z
 -------------------------------------------------------------------
      1        6          -0.006988546    0.017515407    0.038920327
      2        1           0.003635270    0.010246900   -0.001142154
      3        6          -0.001707105    0.021864709    0.047610768
      4        1          -0.005747710   -0.007102866    0.006087396
      5        6          -0.017414499   -0.008280851   -0.035552969
      6        1           0.006261665   -0.000277991    0.005698830
      7        7           0.039305041   -0.029187308   -0.023011046
      8        7           0.069075370   -0.059965006   -0.026312513
      9        6          -0.032779579    0.000216341   -0.008254373
     10        1           0.007498643   -0.000433095    0.013473608
     11        1           0.012867168   -0.004343095   -0.007312925
     12        6           0.007412283    0.013299902   -0.015289883
     13        1           0.006070925   -0.012153840   -0.003965458
     14        1           0.004958613    0.002493880    0.012596409
     15        1          -0.014530379    0.004418492   -0.001055080
     16        6           0.014785682   -0.009666109    0.006852903
     17        1          -0.012587372   -0.000482992    0.006115285
     18        1           0.005970240    0.015314685   -0.001402700
     19        1          -0.007817154   -0.002517778   -0.011963901
     20       17          -0.078268556    0.049040617   -0.002092524
 -------------------------------------------------------------------
 Cartesian Forces:  Max     0.078268556 RMS     0.022668095
 Leave Link  716 at Mon Dec 22 19:04:49 2025, MaxMem=  6710886400 cpu:               0.1 elap:               0.0
 (Enter /opt/software/gaussian/g16/l103.exe)

 GradGradGradGradGradGradGradGradGradGradGradGradGradGradGradGradGradGrad
 Berny optimization.
 FormGI is forming the generalized inverse of G from B-inverse, IUseBI=4.
 Internal  Forces:  Max     0.058242479 RMS     0.011643979
 Search for a local minimum.
 Step number   1 out of a maximum of  116
 All quantities printed in internal units (Hartrees-Bohrs-Radians)
 RMS Force = .11644D-01 SwitMx=.10000D-02 MixMth= 1
 Mixed Optimization -- RFO/linear search
 Second derivative matrix not updated -- first step.
 ITU=  0
     Eigenvalues ---    0.00237   0.00766   0.00766   0.01320   0.01419
     Eigenvalues ---    0.01585   0.01984   0.02436   0.03293   0.04015
     Eigenvalues ---    0.04502   0.05496   0.05720   0.05720   0.05720
     Eigenvalues ---    0.06065   0.06065   0.07279   0.08860   0.12453
     Eigenvalues ---    0.16000   0.16000   0.16000   0.16000   0.16000
     Eigenvalues ---    0.16000   0.16000   0.16000   0.16000   0.19061
     Eigenvalues ---    0.21985   0.22764   0.23343   0.24738   0.25000
     Eigenvalues ---    0.28519   0.33738   0.35740   0.35740   0.35770
     Eigenvalues ---    0.37230   0.37230   0.37230   0.37230   0.37230
     Eigenvalues ---    0.37230   0.37230   0.37230   0.37230   0.37230
     Eigenvalues ---    0.37230   0.47997   0.52762   0.55671
 RFO step:  Lambda=-6.73085628D-02 EMin= 2.36822857D-03
 Linear search not attempted -- first point.
 Maximum step size (   0.300) exceeded in Quadratic search.
    -- Step size scaled by   0.516
 Iteration  1 RMS(Cart)=  0.03869210 RMS(Int)=  0.00365308
 Iteration  2 RMS(Cart)=  0.00383426 RMS(Int)=  0.00021838
 Iteration  3 RMS(Cart)=  0.00001499 RMS(Int)=  0.00021803
 Iteration  4 RMS(Cart)=  0.00000000 RMS(Int)=  0.00021803
 ITry= 1 IFail=0 DXMaxC= 2.09D-01 DCOld= 1.00D+10 DXMaxT= 3.00D-01 DXLimC= 3.00D+00 Rises=F
 Variable       Old X    -DE/DX   Delta X   Delta X   Delta X     New X
                                 (Linear)    (Quad)   (Total)
    R1        2.02201   0.00384   0.00000   0.00451   0.00451   2.02652
    R2        2.54210   0.00177   0.00000   0.00135   0.00133   2.54343
    R3        2.77243  -0.04891   0.00000  -0.05840  -0.05837   2.71406
    R4        2.02201   0.00385   0.00000   0.00452   0.00452   2.02653
    R5        2.77243  -0.05242   0.00000  -0.06378  -0.06382   2.70860
    R6        2.02201   0.00434   0.00000   0.00510   0.00510   2.02711
    R7        2.54328  -0.00461   0.00000  -0.00347  -0.00343   2.53984
    R8        2.54328  -0.01270   0.00000  -0.01225  -0.01225   2.53102
    R9        4.29948   0.03509   0.00000   0.11350   0.11425   4.41374
   R10        2.77790  -0.00618   0.00000  -0.00751  -0.00751   2.77039
   R11        2.77790  -0.01174   0.00000  -0.01426  -0.01426   2.76364
   R12        4.54166   0.05824   0.00000   0.24438   0.24368   4.78534
   R13        2.02201   0.01466   0.00000   0.01721   0.01721   2.03922
   R14        2.02201   0.01430   0.00000   0.01678   0.01678   2.03879
   R15        2.91018   0.00155   0.00000   0.00227   0.00227   2.91244
   R16        2.02201   0.01387   0.00000   0.01627   0.01627   2.03828
   R17        2.02201   0.01374   0.00000   0.01613   0.01613   2.03814
   R18        2.02201   0.01497   0.00000   0.01757   0.01757   2.03958
   R19        2.02201   0.01345   0.00000   0.01578   0.01578   2.03779
   R20        2.02201   0.01648   0.00000   0.01934   0.01934   2.04135
   R21        2.02201   0.01417   0.00000   0.01663   0.01663   2.03864
    A1        2.20908   0.00970   0.00000   0.02234   0.02237   2.23144
    A2        2.20908  -0.01096   0.00000  -0.02455  -0.02452   2.18456
    A3        1.86503   0.00127   0.00000   0.00222   0.00209   1.86713
    A4        2.20908   0.00725   0.00000   0.01870   0.01878   2.22785
    A5        1.86503   0.00620   0.00000   0.00955   0.00937   1.87441
    A6        2.20908  -0.01344   0.00000  -0.02826  -0.02818   2.18089
    A7        2.18730  -0.00389   0.00000  -0.00733  -0.00811   2.17918
    A8        2.18730  -0.00040   0.00000   0.00056  -0.00025   2.18704
    A9        1.64229  -0.01318   0.00000  -0.02970  -0.02980   1.61249
   A10        1.90859   0.00429   0.00000   0.00678   0.00574   1.91434
   A11        1.68632   0.01567   0.00000   0.04060   0.04078   1.72709
   A12        1.89306  -0.00630   0.00000  -0.00949  -0.00957   1.88349
   A13        2.19506   0.00310   0.00000   0.00467   0.00467   2.19973
   A14        2.19506   0.00320   0.00000   0.00483   0.00483   2.19989
   A15        1.89306  -0.00545   0.00000  -0.00905  -0.00908   1.88398
   A16        2.19506  -0.00018   0.00000   0.00206   0.00204   2.19710
   A17        1.73688   0.00912   0.00000   0.01986   0.01965   1.75654
   A18        2.19506   0.00563   0.00000   0.00700   0.00691   2.20197
   A19        1.74912  -0.00566   0.00000  -0.00133  -0.00093   1.74819
   A20        1.91063  -0.00557   0.00000  -0.01347  -0.01363   1.89700
   A21        1.91063  -0.00602   0.00000  -0.01508  -0.01523   1.89540
   A22        1.91063   0.01016   0.00000   0.01956   0.01956   1.93019
   A23        1.91063  -0.00014   0.00000  -0.00493  -0.00512   1.90551
   A24        1.91063   0.00075   0.00000   0.00705   0.00711   1.91774
   A25        1.91063   0.00082   0.00000   0.00688   0.00695   1.91759
   A26        1.91063  -0.00215   0.00000  -0.00470  -0.00471   1.90592
   A27        1.91063  -0.00034   0.00000  -0.00139  -0.00139   1.90924
   A28        1.91063  -0.00239   0.00000  -0.00499  -0.00499   1.90564
   A29        1.91063   0.00062   0.00000   0.00052   0.00051   1.91115
   A30        1.91063   0.00314   0.00000   0.00837   0.00836   1.91900
   A31        1.91063   0.00112   0.00000   0.00218   0.00218   1.91281
   A32        1.91063   0.00334   0.00000   0.00757   0.00756   1.91819
   A33        1.91063  -0.00019   0.00000   0.00025   0.00024   1.91087
   A34        1.91063   0.00278   0.00000   0.00563   0.00562   1.91625
   A35        1.91063  -0.00067   0.00000  -0.00018  -0.00020   1.91044
   A36        1.91063  -0.00398   0.00000  -0.01041  -0.01042   1.90022
   A37        1.91063  -0.00127   0.00000  -0.00286  -0.00286   1.90777
    D1        0.00000  -0.00046   0.00000  -0.00315  -0.00320  -0.00319
    D2       -3.14159  -0.00288   0.00000  -0.01141  -0.01161   3.12998
    D3       -3.14159   0.00330   0.00000   0.00810   0.00818  -3.13341
    D4       -0.00000   0.00087   0.00000  -0.00015  -0.00023  -0.00023
    D5        3.14159  -0.00319   0.00000  -0.01880  -0.01891   3.12268
    D6       -0.00000  -0.00119   0.00000  -0.00672  -0.00686  -0.00686
    D7        0.00000  -0.00694   0.00000  -0.03005  -0.02990  -0.02990
    D8       -3.14159  -0.00494   0.00000  -0.01797  -0.01785   3.12374
    D9        0.00000   0.00545   0.00000   0.03031   0.03040   0.03040
   D10       -3.14159   0.00320   0.00000   0.01384   0.01390  -3.12769
   D11        1.22131   0.00313   0.00000  -0.00178  -0.00227   1.21905
   D12        3.14159   0.00302   0.00000   0.02206   0.02227  -3.11932
   D13       -0.00000   0.00077   0.00000   0.00558   0.00577   0.00577
   D14       -1.92028   0.00071   0.00000  -0.01003  -0.01040  -1.93068
   D15        3.14159  -0.00430   0.00000  -0.02459  -0.02439   3.11720
   D16       -0.00000  -0.00630   0.00000  -0.03667  -0.03645  -0.03645
   D17        0.00000   0.01053   0.00000   0.04990   0.04998   0.04998
   D18       -3.14159   0.00853   0.00000   0.03782   0.03792  -3.10367
   D19       -1.39960  -0.01012   0.00000  -0.03344  -0.03370  -1.43330
   D20        1.74199  -0.01212   0.00000  -0.04552  -0.04576   1.69623
   D21       -3.14159   0.00484   0.00000   0.02450   0.02468  -3.11691
   D22        0.00000   0.00709   0.00000   0.04097   0.04124   0.04124
   D23       -0.00000  -0.00999   0.00000  -0.05000  -0.05010  -0.05010
   D24        3.14159  -0.00773   0.00000  -0.03353  -0.03354   3.10805
   D25       -2.61799   0.00202   0.00000   0.00159   0.00142  -2.61657
   D26       -0.52360  -0.00525   0.00000  -0.02193  -0.02182  -0.54542
   D27        1.57080  -0.00171   0.00000  -0.01077  -0.01080   1.55999
   D28        0.52360   0.00435   0.00000   0.01571   0.01561   0.53921
   D29        2.61799  -0.00292   0.00000  -0.00781  -0.00764   2.61035
   D30       -1.57080   0.00062   0.00000   0.00335   0.00338  -1.56742
   D31        0.52360  -0.00092   0.00000   0.00018   0.00019   0.52379
   D32        2.61799  -0.00168   0.00000  -0.00291  -0.00290   2.61509
   D33       -1.57080  -0.00199   0.00000  -0.00414  -0.00413  -1.57492
   D34       -2.61799  -0.00355   0.00000  -0.01908  -0.01926  -2.63725
   D35       -0.52360  -0.00432   0.00000  -0.02217  -0.02234  -0.54594
   D36        1.57080  -0.00462   0.00000  -0.02339  -0.02357   1.54723
   D37        2.43799   0.00627   0.00000   0.02606   0.02623   2.46421
   D38       -1.75080   0.00550   0.00000   0.02297   0.02314  -1.72766
   D39        0.34359   0.00520   0.00000   0.02174   0.02191   0.36550
   D40        1.04720  -0.00067   0.00000  -0.00308  -0.00308   1.04412
   D41        3.14159   0.00043   0.00000   0.00149   0.00149  -3.14010
   D42       -1.04720   0.00045   0.00000   0.00158   0.00158  -1.04562
   D43       -1.04720  -0.00053   0.00000  -0.00287  -0.00291  -1.05011
   D44        1.04720   0.00058   0.00000   0.00169   0.00166   1.04886
   D45       -3.14159   0.00060   0.00000   0.00179   0.00175  -3.13984
   D46       -3.14159  -0.00131   0.00000  -0.00537  -0.00533   3.13626
   D47       -1.04720  -0.00021   0.00000  -0.00080  -0.00076  -1.04796
   D48        1.04720  -0.00019   0.00000  -0.00070  -0.00067   1.04653
         Item               Value     Threshold  Converged?
 Maximum Force            0.058242     0.000450     NO 
 RMS     Force            0.011644     0.000300     NO 
 Maximum Displacement     0.209198     0.001800     NO 
 RMS     Displacement     0.041033     0.001200     NO 
 Predicted change in Energy=-2.955021D-02
 Lowest energy point so far.  Saving SCF results.
 GradGradGradGradGradGradGradGradGradGradGradGradGradGradGradGradGradGrad

 Leave Link  103 at Mon Dec 22 19:04:49 2025, MaxMem=  6710886400 cpu:               0.2 elap:               0.0
 (Enter /opt/software/gaussian/g16/l202.exe)
                          Input orientation:                          
 ---------------------------------------------------------------------
 Center     Atomic      Atomic             Coordinates (Angstroms)
 Number     Number       Type             X           Y           Z
 ---------------------------------------------------------------------
      1          6           0       -1.777271   -0.728845   -1.112921
      2          1           0       -1.404142   -0.546254   -2.101581
      3          6           0       -2.345954   -1.853044   -0.639333
      4          1           0       -2.529790   -2.767298   -1.168830
      5          6           0       -2.318699   -0.365392    1.039173
      6          1           0       -2.417242    0.091299    2.004784
      7          7           0       -1.740261    0.211568   -0.028036
      8          7           0       -2.666321   -1.623481    0.738746
      9          6           0       -1.184659    1.567223   -0.080378
     10          1           0       -0.811904    1.826207    0.898629
     11          1           0       -0.367543    1.577244   -0.784795
     12          6           0       -3.284701   -2.588307    1.647309
     13          1           0       -2.999766   -3.586028    1.352743
     14          1           0       -2.946669   -2.399761    2.654000
     15          1           0       -4.357777   -2.482682    1.600033
     16          6           0       -2.263283    2.578689   -0.514892
     17          1           0       -3.082744    2.565277    0.185925
     18          1           0       -1.835016    3.569818   -0.548902
     19          1           0       -2.636192    2.317507   -1.492920
     20         17           0       -4.555373    0.047030    0.507709
 ---------------------------------------------------------------------
                    Distance matrix (angstroms):
                    1          2          3          4          5
     1  C    0.000000
     2  H    1.072386   0.000000
     3  C    1.345923   2.175518   0.000000
     4  H    2.173638   2.658974   1.072391   0.000000
     5  C    2.248722   3.276196   2.243041   3.269402   0.000000
     6  H    3.286683   4.277274   3.282820   4.272712   1.072698
     7  N    1.436218   2.233128   2.236777   3.286093   1.344027
     8  N    2.240414   3.289524   1.433331   2.228409   1.339360
     9  C    2.586361   2.932614   3.655033   4.667138   2.504884
    10  H    3.392132   3.870475   4.272649   5.322199   2.663323
    11  H    2.722691   2.705126   3.962594   4.868043   3.302682
    12  C    3.653603   4.664832   2.578874   2.921056   2.498868
    13  H    3.967051   4.870174   2.720124   2.692495   3.306762
    14  H    4.283591   5.332019   3.392021   3.863017   2.672204
    15  H    4.134619   5.116216   3.075490   3.330037   2.992544
    16  C    3.396119   3.608459   4.434251   5.392424   3.329535
    17  H    3.773924   4.210940   4.554720   5.529690   3.146525
    18  H    4.335892   4.420239   5.447630   6.405159   4.271044
    19  H    3.187853   3.176404   4.266889   5.096233   3.702734
    20  Cl   3.308515   4.134082   3.131696   3.851521   2.335649
                    6          7          8          9         10
     6  H    0.000000
     7  N    2.145955   0.000000
     8  N    2.146010   2.193843   0.000000
     9  C    2.836461   1.466027   3.612046   0.000000
    10  H    2.609712   2.080292   3.919792   1.079108   0.000000
    11  H    3.767101   2.078969   4.224950   1.078881   1.758794
    12  C    2.839112   3.609899   1.462453   4.966237   5.114995
    13  H    3.779844   4.232569   2.083211   5.648402   5.855360
    14  H    2.628147   3.932910   2.085523   5.130153   5.049491
    15  H    3.248827   4.094018   2.083523   5.412411   5.624207
    16  C    3.543950   2.472619   4.403667   1.541199   2.161198
    17  H    3.141928   2.718085   4.245552   2.160962   2.492166
    18  H    4.354354   3.399725   5.414745   2.157050   2.486421
    19  H    4.151852   2.717270   4.529087   2.159895   3.047771
    20  Cl   2.610517   2.870357   2.532292   3.744135   4.163154
                   11         12         13         14         15
    11  H    0.000000
    12  C    5.637088   0.000000
    13  H    6.177139   1.078612   0.000000
    14  H    5.856089   1.078537   1.761624   0.000000
    15  H    6.171902   1.079299   1.767121   1.763221   0.000000
    16  C    2.160919   5.693528   6.483379   5.940864   5.871737
    17  H    3.048085   5.360584   6.261541   5.546306   5.395118
    18  H    2.485855   6.696823   7.495267   6.865147   6.900363
    19  H    2.489216   5.860769   6.563666   6.288558   5.964229
    20  Cl   4.642202   3.139793   4.041424   3.630603   2.762546
                   16         17         18         19         20
    16  C    0.000000
    17  H    1.078351   0.000000
    18  H    1.080235   1.762357   0.000000
    19  H    1.078802   1.754799   1.761061   0.000000
    20  Cl   3.564924   2.934918   4.574583   3.583411   0.000000
 Stoichiometry    C6H11ClN2
 Framework group  C1[X(C6H11ClN2)]
 Deg. of freedom    54
 Full point group                 C1      NOp   1
 RotChk:  IX=0 Diff= 4.46D-02
 Largest Abelian subgroup         C1      NOp   1
 Largest concise Abelian subgroup C1      NOp   1
                         Standard orientation:                         
 ---------------------------------------------------------------------
 Center     Atomic      Atomic             Coordinates (Angstroms)
 Number     Number       Type             X           Y           Z
 ---------------------------------------------------------------------
      1          6           0        0.291132   -1.443627   -0.897219
      2          1           0        0.888153   -1.989192   -1.601448
      3          6           0       -1.047084   -1.300315   -0.885081
      4          1           0       -1.755528   -1.705168   -1.580943
      5          6           0       -0.241374   -0.156392    0.868061
      6          1           0       -0.170819    0.425873    1.766209
      7          7           0        0.799705   -0.729796    0.240550
      8          7           0       -1.381984   -0.499691    0.255656
      9          6           0        2.207423   -0.630475    0.637668
     10          1           0        2.257615   -0.528185    1.710743
     11          1           0        2.712576   -1.537458    0.344092
     12          6           0       -2.731362   -0.109626    0.662840
     13          1           0       -3.428790   -0.873766    0.357741
     14          1           0       -2.764089    0.000256    1.735265
     15          1           0       -2.985622    0.829110    0.194853
     16          6           0        2.876414    0.583393   -0.036328
     17          1           0        2.368582    1.489770    0.252513
     18          1           0        3.911736    0.638670    0.266922
     19          1           0        2.823912    0.480588   -1.108937
     20         17           0       -0.465451    1.748128   -0.465300
 ---------------------------------------------------------------------
 Rotational constants (GHZ):           2.0241693           1.1416471           0.8927484
 Leave Link  202 at Mon Dec 22 19:04:49 2025, MaxMem=  6710886400 cpu:               0.0 elap:               0.0
 (Enter /opt/software/gaussian/g16/l301.exe)
 Standard basis: 6-311+G(d,p) (5D, 7F)
 Ernie: Thresh=  0.10000D-02 Tol=  0.10000D-05 Strict=F.
 There are   281 symmetry adapted cartesian basis functions of A   symmetry.
 There are   272 symmetry adapted basis functions of A   symmetry.
   272 basis functions,   429 primitive gaussians,   281 cartesian basis functions
    39 alpha electrons       39 beta electrons
       nuclear repulsion energy       556.4546611064 Hartrees.
 IExCor=  402 DFT=T Ex+Corr=B3LYP ExCW=0 ScaHFX=  0.200000
 ScaDFX=  0.800000  0.720000  1.000000  0.810000 ScalE2=  1.000000  1.000000
 IRadAn=      5 IRanWt=     -1 IRanGd=            0 ICorTp=0 IEmpDi=131
 NAtoms=   20 NActive=   20 NUniq=   20 SFac= 1.00D+00 NAtFMM=   60 NAOKFM=F Big=F
 Integral buffers will be    131072 words long.
 Raffenetti 2 integral format.
 Two-electron integral symmetry is turned on.
 R6Disp:  Grimme-D3 Dispersion energy=       -0.0183451803 Hartrees.
 Nuclear repulsion after empirical dispersion term =      556.4363159262 Hartrees.
 Leave Link  301 at Mon Dec 22 19:04:49 2025, MaxMem=  6710886400 cpu:               0.1 elap:               0.0
 (Enter /opt/software/gaussian/g16/l302.exe)
 NPDir=0 NMtPBC=     1 NCelOv=     1 NCel=       1 NClECP=     1 NCelD=      1
         NCelK=      1 NCelE2=     1 NClLst=     1 CellRange=     0.0.
 One-electron integrals computed using PRISM.
 One-electron integral symmetry used in STVInt
 NBasis=   272 RedAO= T EigKep=  2.03D-05  NBF=   272
 NBsUse=   272 1.00D-06 EigRej= -1.00D+00 NBFU=   272
 Precomputing XC quadrature grid using
 IXCGrd= 4 IRadAn=           5 IRanWt=          -1 IRanGd=           0 AccXCQ= 0.00D+00.
 Generated NRdTot=       0 NPtTot=           0 NUsed=           0 NTot=          32
 NSgBfM=   281   281   281   281   281 MxSgAt=    20 MxSgA2=    20.
 Leave Link  302 at Mon Dec 22 19:04:49 2025, MaxMem=  6710886400 cpu:               0.9 elap:               0.1
 (Enter /opt/software/gaussian/g16/l303.exe)
 DipDrv:  MaxL=1.
 Leave Link  303 at Mon Dec 22 19:04:49 2025, MaxMem=  6710886400 cpu:               0.1 elap:               0.0
 (Enter /opt/software/gaussian/g16/l401.exe)
 Initial guess from the checkpoint file:  "emimcl.chk"
 B after Tr=     0.000000   -0.000000    0.000000
         Rot=    0.999795   -0.020081    0.001818    0.001979 Ang=  -2.32 deg.
 Guess basis will be translated and rotated to current coordinates.
 JPrj=2 DoOrth=T DoCkMO=T.
 Generating alternative initial guess.
 ExpMin= 4.38D-02 ExpMax= 1.06D+05 ExpMxC= 3.62D+03 IAcc=3 IRadAn=         5 AccDes= 0.00D+00
 Harris functional with IExCor=  402 and IRadAn=       5 diagonalized for initial guess.
 HarFok:  IExCor=  402 AccDes= 0.00D+00 IRadAn=         5 IDoV= 1 UseB2=F ITyADJ=14
 ICtDFT=  3500011 ScaDFX=  1.000000  1.000000  1.000000  1.000000
 FoFCou: FMM=F IPFlag=           0 FMFlag=      100000 FMFlg1=           0
         NFxFlg=           0 DoJE=T BraDBF=F KetDBF=T FulRan=T
         wScrn=  0.000000 ICntrl=       500 IOpCl=  0 I1Cent=   200000004 NGrid=           0
         NMat0=    1 NMatS0=      1 NMatT0=    0 NMatD0=    1 NMtDS0=    0 NMtDT0=    0
 Petite list used in FoFCou.
 Harris En= -805.003893682703    
 Leave Link  401 at Mon Dec 22 19:04:49 2025, MaxMem=  6710886400 cpu:               3.8 elap:               0.2
 (Enter /opt/software/gaussian/g16/l502.exe)
 Integral symmetry usage will be decided dynamically.
 Closed shell SCF:
 Using DIIS extrapolation, IDIIS=  1040.
 NGot=  6710886400 LenX=  6710720673 LenY=  6710641271
 Requested convergence on RMS density matrix=1.00D-08 within 128 cycles.
 Requested convergence on MAX density matrix=1.00D-06.
 Requested convergence on             energy=1.00D-06.
 No special actions if energy rises.
 Fock matrices will be formed incrementally for  20 cycles.

 Cycle   1  Pass 1  IDiag  1:
 FoFJK:  IHMeth= 1 ICntrl=       0 DoSepK=F KAlg= 0 I1Cent=           0 FoldK=F
 IRaf= 940000000 NMat=       1 IRICut=       1 DoRegI=T DoRafI=F ISym2E= 0 IDoP0=0 IntGTp=1.
[...]
 .03811565,0.01563424,0.29386588,-0.01225101,-0.01435959,0.00918031,-0.
 00247633,-0.00410796,-0.00008193,-0.02517177,-0.10942049,-0.02244601,0
 .00735051,0.00335802,-0.02740304,-0.07858838,-0.30222210,-0.07149808,0
 .00322724,-0.00666176,0.00262838,-0.03739456,-0.06510899,0.05128457,0.
 22896917,0.66046399,0.03626944,0.05589681,-0.06046010,0.00153953,0.001
 36658,0.00213535,0.02909477,-0.02457042,-0.25866450,0.00266329,0.00396
 240,-0.01240292,0.00958403,-0.07114312,-0.14662929,-0.00886116,-0.0276
 0049,0.00264091,-0.00076316,0.00870370,-0.00379265,-0.14710703,0.00221
 419,0.63392150,-0.00386011,-0.00264137,-0.00445356,-0.00031637,0.00076
 005,0.00012780,0.00239846,0.00200885,-0.00078295,0.00140090,-0.0005143
 8,0.00012263,-0.01242488,-0.01557104,0.00210726,-0.00131805,0.00109607
 ,-0.00049086,-0.07071098,-0.03101629,0.00918224,0.00391017,-0.00024728
 ,0.00412522,0.54441667,-0.00341960,-0.01856284,-0.00810530,0.00032802,
 0.00111104,0.00113969,0.00134909,0.00339038,-0.00076183,-0.00009988,0.
 00042916,-0.00019806,-0.01253222,-0.01484271,0.01176799,0.00202641,0.0
 0156047,-0.00057209,-0.03755259,-0.17816258,-0.00116542,0.00100113,0.0
 0319062,-0.00073901,0.01385560,0.42760649,-0.01016472,-0.02582426,0.00
 916755,-0.00007561,0.00022134,-0.00004594,0.00072728,-0.00346139,-0.00
 816588,-0.00041008,-0.00103496,0.00097761,0.00129836,0.02268752,0.0089
 0947,0.00013133,0.00114965,-0.00002141,0.01229306,-0.00362231,-0.10616
 264,0.00383324,0.00530276,-0.00277993,-0.04266270,0.03830845,0.6073954
 8,0.00001557,-0.00066983,0.00109404,-0.00019553,-0.00006426,-0.0001790
 5,0.00018923,-0.00052177,-0.00016344,-0.00004122,-0.00009419,0.0000769
 3,0.00137079,-0.00030161,-0.00110662,0.00009983,-0.00046580,0.00022597
 ,-0.00221251,-0.00613880,-0.01004583,-0.00029724,0.00014582,-0.0001520
 2,-0.04991541,-0.00450417,-0.00956719,0.05045097,-0.00235310,-0.003262
 40,0.00387538,0.00005226,0.00004161,-0.00002794,-0.00013665,-0.0012363
 1,-0.00156065,-0.00014636,-0.00036988,0.00034138,0.00103062,0.00056670
 ,-0.00224987,-0.00054970,-0.00040301,0.00070781,-0.00295374,-0.0218378
 5,-0.03748763,0.00016351,0.00005649,0.00008086,-0.00710129,-0.06963991
 ,-0.06597769,0.00680209,0.08892512,0.00041784,0.00103246,0.00088364,-0
 .00001359,0.00017474,0.00012043,0.00010670,0.00031118,0.00013647,-0.00
 004137,0.00010037,0.00003474,0.00061470,0.00113709,0.00074377,-0.00018
 587,-0.00004784,0.00024973,0.00034213,0.00070268,0.00209608,0.00000590
 ,-0.00025005,0.00034967,-0.01390441,-0.07919562,-0.29372087,0.01696220
 ,0.07921288,0.31396369,0.00033530,0.00035605,0.00060368,-0.00031213,-0
 .00019041,-0.00033310,-0.00019586,-0.00067882,0.00030902,0.00000907,-0
 .00000139,0.00000754,0.00017095,0.00040824,-0.00186795,-0.00003825,0.0
 0001965,-0.00003555,-0.00469166,-0.00596648,0.00459624,-0.00006074,-0.
 00045332,-0.00039792,-0.25907067,-0.01577190,0.09882462,0.00307744,0.0
 0127469,-0.00056861,0.28095520,0.00026483,0.00205851,0.00139228,-0.000
 06999,0.00007523,-0.00037856,-0.00034760,-0.00065873,0.00115488,0.0001
 8502,-0.00007256,0.00000305,-0.00079101,-0.00193831,-0.00464906,-0.000
 23089,0.00001144,0.00001878,-0.03490040,-0.01627301,0.02106577,-0.0004
 4486,-0.00212041,0.00040811,-0.00905464,-0.04780300,-0.00018100,0.0096
 5420,0.00175542,-0.00322002,0.01803986,0.06320092,-0.00056500,-0.00024
 518,0.00041120,0.00017291,0.00002760,0.00006671,-0.00012019,0.00029845
 ,0.00028480,0.00011608,-0.00003474,0.00001567,0.00043760,0.00059975,0.
 00014275,0.00019683,-0.00019557,0.00026345,-0.00092835,0.00070848,-0.0
 0008117,-0.00034818,-0.00032172,-0.00021590,0.09923863,0.00598437,-0.0
 9853850,0.02736416,0.00310683,-0.01133098,-0.10696562,-0.01015254,0.10
 056149,0.00211725,-0.00304995,-0.00284685,0.00149150,0.00007394,0.0001
 0313,-0.00426567,0.00341283,0.00210382,-0.00078473,0.00064248,-0.00112
 718,-0.00361769,-0.00454799,0.00071202,-0.00089546,0.00121291,-0.00039
 540,0.00061574,0.00018077,0.00412480,-0.10725602,-0.06367074,0.0496772
 0,0.00168408,0.00007254,0.00023853,-0.00003876,0.00002498,-0.00002662,
 0.00003307,0.00031823,0.00006230,0.52273014,0.00102993,0.00384103,-0.0
 0409406,-0.00069789,0.00103260,-0.00008765,0.00377797,0.00451721,0.009
 53772,0.00124351,0.00046011,-0.00151556,-0.01469445,-0.02897366,0.0199
 7821,0.00042603,0.00091865,-0.00051820,-0.00144954,-0.00345691,-0.0051
 0429,-0.05172997,-0.12983383,0.02920551,-0.00126982,-0.00012112,0.0002
 9093,0.00003126,0.00012102,0.00001298,-0.00002086,-0.00024736,-0.00000
 680,-0.03883733,0.56450214,0.00096233,-0.00305003,-0.00450659,0.000684
 36,0.00071036,0.00021202,0.01567284,0.02266249,-0.01632966,-0.00083557
 ,0.00042727,0.00102665,-0.00736141,0.00545663,0.01406629,-0.00022767,-
 0.00129166,0.00072682,-0.00092803,-0.00585488,-0.00005292,0.04356349,0
 .02845063,-0.13748058,0.00069427,0.00040871,0.00125239,0.00001058,0.00
 000470,-0.00001592,-0.00012814,-0.00020265,0.00005412,0.04336703,0.054
 51988,0.56321300,-0.00023915,0.00003867,-0.00033435,-0.00007867,0.0000
 7952,0.00001033,0.00082624,0.00024395,-0.00089089,0.00028495,0.0000408
 6,0.00036067,-0.00160555,-0.00003556,0.00347651,-0.00010530,0.00006931
 ,0.00001685,0.00009001,-0.00153624,-0.00018682,-0.00538737,-0.02398520
 ,-0.00961883,-0.00005547,0.00014056,0.00025132,-0.00000192,0.00001449,
 -0.00000930,-0.00001820,-0.00008922,0.00000881,-0.04829787,0.00004059,
 0.00143466,0.04867908,-0.00018215,-0.00046039,0.00003101,0.00001263,0.
 00004185,0.00000996,0.00049021,0.00078796,-0.00158074,-0.00013562,0.00
 015479,0.00089346,-0.00050790,0.00088233,0.00313321,0.00011612,-0.0000
 0553,0.00000888,-0.00058423,-0.00085285,0.00016452,-0.00301842,-0.0221
 9995,-0.00814938,-0.00007548,0.00018872,0.00026347,0.00002050,0.000028
 89,0.00000480,-0.00002246,-0.00010130,0.00001909,-0.00753242,-0.265213
 67,-0.10378966,0.01219721,0.29065216,-0.00007500,0.00038689,0.00039051
 ,0.00004788,-0.00007533,0.00001319,0.00003600,0.00099518,0.00148811,0.
 00017742,-0.00008259,-0.00027186,0.00169718,0.00063152,-0.00316957,0.0
 0008343,0.00030176,0.00000049,0.00055869,0.00138458,-0.00007228,0.0030
 3260,0.02483365,0.00803482,0.00017746,-0.00008688,-0.00022778,0.000005
 47,-0.00000882,0.00000532,0.00001700,0.00009534,0.00000034,-0.00379779
 ,-0.11473130,-0.10464920,-0.00184749,0.11313848,0.10892358,-0.00051569
 ,0.00000532,0.00137267,-0.00030427,-0.00019680,-0.00001694,-0.00045031
 ,-0.00339757,0.00080182,0.00000557,0.00002630,0.00001672,0.00075865,0.
 00045002,0.00013555,0.00019257,0.00003508,-0.00029622,0.00015468,0.000
 46293,-0.00008115,0.00646785,-0.00239978,0.02718665,-0.00020802,0.0000
 1923,-0.00009693,0.00000461,-0.00001546,-0.00000146,0.00000632,-0.0000
 2283,0.00000174,-0.09801226,0.00773032,-0.11045634,-0.00073532,0.00052
 800,0.00064396,0.10145877,-0.00051317,-0.00064031,0.00081975,-0.000324
 09,-0.00011277,-0.00006172,0.00034563,-0.00239286,-0.00138864,-0.00010
 706,0.00009853,0.00024223,0.00007538,0.00187592,0.00122384,-0.00009371
 ,-0.00027241,-0.00011216,-0.00004593,-0.00010673,0.00084824,0.00468152
 ,-0.00442568,0.02435483,-0.00017227,0.00012407,-0.00001478,-0.00001385
 ,-0.00003776,-0.00000672,0.00000415,-0.00005747,-0.00001614,0.00620518
 ,-0.05088171,0.01199654,-0.01227036,0.00505283,-0.02645345,-0.00323642
 ,0.05163303,0.00051089,-0.00003832,-0.00075646,0.00013781,0.00020780,0
 .00005857,-0.00021106,0.00305157,0.00113530,-0.00017756,0.00003379,0.0
 0015749,0.00012602,-0.00153266,0.00007544,-0.00032015,0.00059470,-0.00
 006844,0.00039049,0.00011781,0.00000144,-0.00136952,0.00316493,-0.0206
 0864,0.00001502,-0.00009524,0.00000936,-0.00000111,0.00003858,0.000003
 76,0.00000757,0.00004413,-0.00000007,-0.10097557,0.01743332,-0.2661786
 4,-0.00533370,0.00098844,-0.00992673,0.10730918,-0.02343649,0.29238596
 ,-0.00047901,-0.00133344,0.00028351,0.00017403,-0.00009235,-0.00000141
 ,-0.00057739,0.00036888,-0.00262793,-0.00005530,0.00003342,0.00011083,
 -0.00090210,0.00264045,0.00076027,-0.00024170,-0.00011580,-0.00001168,
 0.00020532,0.00040440,0.00102200,-0.02171223,-0.00336601,0.01020862,0.
 00017167,-0.00005396,0.00006075,0.00000189,-0.00000475,-0.00000340,0.0
 0000385,0.00004283,-0.00001975,-0.26346024,0.09681758,0.01135734,0.006
 49698,-0.00145008,-0.00070317,-0.00914865,0.00536281,0.00015927,0.2901
 9891,-0.00071410,-0.00209994,0.00001524,0.00020654,-0.00017337,0.00003
 199,-0.00079365,0.00018799,-0.00262963,0.00005589,0.00000765,0.0000605
 5,-0.00303670,0.00477466,0.00055921,-0.00015204,0.00001383,0.00013478,
 0.00001532,-0.00073193,0.00246723,-0.02554257,0.00309352,0.00651425,0.
 00040825,0.00039414,0.00015940,-0.00006058,-0.00003602,-0.00001934,0.0
 0002793,-0.00004660,0.00001484,0.10438469,-0.09372128,-0.00919583,0.02
 413757,-0.00844969,-0.00005225,-0.00023109,0.00010380,-0.00067485,-0.1
 0029319,0.09693962,-0.00025283,0.00134135,-0.00008122,-0.00019249,0.00
 016868,-0.00005168,0.00124970,0.00006323,0.00153685,0.00031876,-0.0001
 5959,0.00001829,0.00009493,-0.00312939,0.00039570,-0.00016461,0.000011
 37,0.00001547,0.00042701,0.00020126,-0.00143043,0.02482978,-0.00147212
 ,-0.00610585,-0.00023902,-0.00011607,-0.00010408,0.00000101,0.00001487
 ,0.00000528,0.00001075,0.00000780,-0.00000013,0.00836158,-0.00669520,-
 0.05090278,0.01308423,-0.00530932,-0.00081096,-0.02702103,0.01240371,0
 .00354513,-0.02004627,0.00279084,0.05509393,0.00068290,0.00028780,0.00
 089004,0.00000804,-0.00003602,-0.00003530,-0.00045416,-0.00078582,0.00
 073251,-0.00014875,0.00003507,-0.00000531,0.00189445,-0.00076463,-0.00
 081785,0.00017610,-0.00010820,-0.00008925,0.01014741,-0.00270415,0.006
 77939,-0.00114588,-0.00137466,-0.00063099,-0.13894660,0.03875563,-0.03
 942173,-0.00153021,0.00136197,-0.00187752,-0.02008936,0.01723487,-0.01
 759155,-0.00018773,0.00018121,-0.00034601,-0.00003313,-0.00005820,0.00
 002613,0.00003433,0.00001305,0.00002273,-0.00000607,-0.00011512,0.0000
 7031,0.52502224,0.00182277,0.00035074,0.00185749,-0.00016071,-0.000177
 73,-0.00003243,-0.00041922,-0.00015666,0.00100743,-0.00022517,0.000090
 67,-0.00005598,0.00466115,0.00015554,-0.00333984,-0.00011365,-0.000194
 99,0.00013321,0.01758032,-0.03944690,0.02182575,-0.00143955,-0.0018739
 4,-0.00031102,0.03507675,-0.09450518,0.02147522,-0.00607207,0.00611644
 ,-0.00266983,0.00017618,0.00269805,-0.00102300,-0.00056705,0.00029830,
 -0.00040984,-0.00004338,-0.00004674,0.00001056,0.00006309,0.00002299,0
 .00001263,-0.00001997,-0.00021548,0.00011895,0.04959105,0.53858911,0.0
 0026304,-0.00002865,0.00159043,0.00040071,-0.00018709,-0.00002054,-0.0
 0057266,-0.00055399,0.00079087,-0.00021444,0.00003429,-0.00000269,0.00
 120837,0.00125084,-0.00160604,-0.00036228,-0.00004249,-0.00004344,0.00
 037715,0.00372959,0.00211525,0.00007845,-0.00164456,-0.00068374,-0.038
 80337,0.02632150,-0.10966515,-0.02302087,0.01871370,-0.01471699,0.0090
 9182,-0.00829121,0.00828338,-0.00009522,0.00006428,-0.00015156,-0.0000
 2572,-0.00002313,0.00002542,0.00001921,-0.00001626,0.00000616,0.000013
 92,-0.00009969,0.00004049,-0.03853963,0.02660440,0.54653791,0.00015035
 ,0.00032345,0.00024336,-0.00003040,0.00002913,-0.00000525,-0.00003081,
 -0.00010165,0.00000380,-0.00000504,-0.00000430,0.00000487,0.00096433,0
 .00017052,-0.00058685,-0.00005168,0.00006033,-0.00001850,0.00072645,-0
 .00141592,0.00070625,-0.00021336,0.00021125,-0.00004558,-0.02208475,-0
 .00087197,0.00771270,0.00043560,-0.00034786,0.00011375,-0.00119557,0.0
 0197040,-0.00238902,-0.00004092,0.00006949,0.00002776,-0.00003576,0.00
 002391,0.00001069,0.00000609,-0.00001353,0.00000575,0.00001354,-0.0001
 4837,0.00000925,-0.26243785,-0.02916762,0.09999999,0.28490679,-0.00001
 817,-0.00001835,-0.00014833,0.00002467,0.00011060,0.00007877,0.0000251
 3,-0.00014022,0.00005349,0.00000647,-0.00001841,0.00001002,0.00119122,
 -0.00059865,-0.00005958,0.00002584,0.00002067,-0.00000403,-0.00034557,
 0.00129953,-0.00094460,-0.00016131,0.00034947,-0.00000167,0.01975437,0
 .00091113,-0.00782438,-0.00085954,0.00031860,-0.00006479,0.00315666,-0
 .00180383,0.00243255,0.00003852,-0.00003560,0.00006452,-0.00002706,0.0
 0002907,0.00001871,-0.00000647,-0.00000665,-0.00001474,0.00000660,-0.0
 0010071,-0.00000681,-0.03350906,-0.05335408,0.01395970,0.02956683,0.05
 534619,0.00007231,-0.00023511,-0.00057733,0.00002798,0.00004178,-0.000
 00738,-0.00007186,0.00013473,0.00008436,0.00000469,0.00001661,-0.00002
 300,-0.00124000,0.00047132,0.00074190,-0.00001008,0.00006139,-0.000015
 60,0.00127256,-0.00017361,0.00041750,0.00020605,-0.00024426,-0.0000991
 4,-0.01840565,-0.00336646,0.00808682,-0.00005864,-0.00058941,0.0006458
 0,-0.00302027,0.00295147,-0.00141226,-0.00002129,-0.00005423,-0.000006
 88,0.00004669,-0.00002984,-0.00002178,0.00000648,0.00001670,0.00000111
 ,-0.00000783,0.00015988,0.00000281,0.10337964,0.01359252,-0.09815514,-
 0.10607004,-0.01648387,0.10301405,-0.00018806,-0.00030492,-0.00049421,
 -0.00004618,0.00000975,0.00003731,0.00020362,0.00027778,-0.00031278,0.
 00005002,0.00000674,-0.00000217,-0.00148840,0.00037513,0.00087472,0.00
 001292,0.00002625,0.00000554,-0.00216030,0.00469892,-0.00368933,0.0004
 6417,0.00053102,0.00011152,0.00587236,0.02144133,0.00243194,0.00103391
 ,-0.00042914,0.00011436,0.00034684,-0.00049194,0.00089242,0.00003217,-
 0.00004957,0.00013434,0.00003304,0.00001321,-0.00002196,-0.00000770,-0
 .00000290,0.00000311,0.00002967,0.00005399,-0.00002618,-0.06502622,-0.
 06782398,-0.00355660,-0.00359444,-0.02767962,-0.00401549,0.06611386,0.
 00025895,0.00079485,0.00074656,-0.00009888,0.00004856,0.00001551,-0.00
 013229,-0.00022530,0.00029129,-0.00003365,0.00000846,0.00000760,0.0013
 3398,0.00043369,-0.00112751,-0.00005231,-0.00004544,-0.00002687,0.0021
 7875,-0.00216784,0.00251271,-0.00031281,-0.00061507,-0.00008935,-0.006
 39648,-0.01576527,-0.00199572,-0.00018303,0.00037270,0.00052426,0.0005
 6338,0.00011072,-0.00033545,-0.00008290,0.00017109,-0.00014525,-0.0000
 1133,-0.00002045,0.00000077,0.00001263,-0.00000974,0.00001888,-0.00000
 481,-0.00007842,0.00003727,-0.06465197,-0.29081062,-0.01084988,-0.0004
 6163,-0.00223910,-0.00030207,0.07039738,0.31718147,-0.00019419,-0.0005
 0436,-0.00060721,-0.00029190,0.00016813,0.00012144,0.00046202,0.000495
 42,-0.00038086,0.00007401,-0.00000387,-0.00000517,-0.00085417,-0.00041
 273,0.00092190,-0.00000930,0.00005128,0.00000899,-0.00237580,0.0036272
 6,-0.00202863,0.00027252,0.00055713,0.00053143,0.00568186,0.01483547,-
 0.00004293,0.00061996,-0.00006728,0.00015912,0.00010362,-0.00028622,0.
 00047645,0.00006238,-0.00000791,0.00008394,0.00001625,0.00001238,-0.00
 000949,-0.00001638,-0.00000327,-0.00000611,-0.00001428,0.00004157,-0.0
 0001917,-0.00374081,-0.01205956,-0.04690081,0.00143943,0.01332607,0.00
 057239,0.00628532,0.01087816,0.04742401,0.00010694,0.00003997,-0.00024
 792,0.00003768,0.00033255,0.00007061,0.00003199,0.00024400,0.00016605,
 -0.00001713,0.00001279,-0.00001400,-0.00008526,0.00012806,0.00001492,-
 0.00010573,-0.00002276,0.00004781,0.00046920,-0.00090735,0.00112383,0.
 00005925,-0.00024774,0.00013559,-0.00265702,-0.00741619,-0.02500481,-0
 .00264204,0.00336794,-0.00207824,0.00080117,-0.00081843,0.00023760,0.0
 0000168,0.00000912,-0.00001026,0.00001322,-0.00000401,-0.00000322,-0.0
 0000462,-0.00000284,-0.00000207,-0.00003123,0.00005490,0.00001214,-0.0
 4776410,-0.00146763,-0.00703689,0.00460722,0.00963074,0.02689612,-0.00
 149986,-0.00196370,-0.00779688,0.04889792,0.00005311,-0.00032784,-0.00
 016883,0.00036089,-0.00059184,-0.00001378,-0.00010085,-0.00022012,0.00
 003495,0.00006941,-0.00001135,-0.00000014,-0.00032989,-0.00018227,0.00
 027481,0.00008349,0.00001122,-0.00003764,-0.00024238,0.00219104,0.0002
 9767,-0.00005060,0.00022199,-0.00025575,0.00147575,0.00347970,0.020149
 18,0.00276594,-0.00163914,0.00215685,-0.00080565,0.00056968,-0.0007836
 4,0.00002787,-0.00005833,0.00003206,-0.00000226,0.00000430,0.00000350,
 0.00000373,0.00000768,-0.00000972,0.00000842,0.00002345,-0.00001133,-0
 .00321166,-0.06712584,-0.07038220,0.00069870,0.00045827,0.00435961,-0.
 00053569,-0.00726318,-0.03058516,-0.00032467,0.07047102,0.00037114,-0.
 00017914,-0.00048169,-0.00034772,0.00005134,0.00035573,0.00044445,0.00
 051236,-0.00017481,0.00002942,0.00001857,-0.00000695,0.00000043,-0.000
 50636,0.00012438,-0.00004736,-0.00007195,0.00005596,0.00007878,-0.0004
 8686,0.00022507,-0.00004169,0.00031226,0.00063545,-0.00082181,-0.00428
 848,-0.01558845,-0.00225194,0.00182805,0.00024055,-0.00038746,0.000330
 07,0.00083504,-0.00001773,0.00010918,0.00000375,-0.00000160,0.00001636
 ,-0.00000179,-0.00000886,-0.00001612,0.00000982,-0.00001677,-0.0000598
 4,0.00000026,-0.00913226,-0.06849818,-0.28695620,-0.00195740,-0.004293
 63,-0.01182535,0.00038140,-0.00040577,-0.00008248,0.01350670,0.0750508
 0,0.31256947,0.00274069,0.00282814,0.00177074,-0.00010505,0.00024576,0
 .00002497,0.00040678,-0.00182721,0.00481275,-0.00027436,0.00000476,0.0
 0012030,0.00516601,-0.00589422,-0.00559679,-0.01004539,0.00431183,0.00
 013827,-0.01201632,-0.00146869,0.00135226,-0.00658139,0.01119177,-0.00
 301916,0.00171403,0.00323295,-0.00039936,0.00019500,-0.00005449,0.0000
 3282,-0.00006678,-0.00044843,0.00019857,-0.00184829,-0.00260759,0.0023
 8444,0.00017020,0.00016917,-0.00006527,0.00029740,0.00010840,-0.000297
 10,-0.00068193,0.00174234,-0.00052702,-0.00019541,-0.00145132,0.000775
 02,-0.00208977,-0.00082024,0.00100863,-0.00018143,-0.00035928,0.000276
 36,-0.00021926,0.00005631,0.00022028,0.02361525,-0.00129372,-0.0016989
 4,-0.00279624,0.00002938,-0.00008695,-0.00001401,-0.00003631,0.0017688
 7,0.00127827,0.00009177,0.00005521,0.00003418,-0.00519221,-0.00164121,
 0.00151399,0.00373765,-0.00130751,0.00002253,0.00290772,0.00310148,0.0
 0096715,0.00665758,-0.00778432,0.00015297,-0.00037535,-0.00298332,-0.0
 0007143,0.00052970,0.00015928,0.00010390,-0.00011549,0.00064262,-0.000
 07719,0.00169343,-0.00331871,-0.00079398,0.00099788,-0.00047233,-0.000
 31031,0.00016977,0.00002524,0.00009545,0.00104897,0.00011477,-0.000259
 51,-0.00014116,-0.00041367,0.00144085,-0.00059114,-0.00052792,-0.00032
 715,-0.00051376,0.00011891,-0.00006251,-0.00064473,-0.00001844,0.00057
 734,-0.00895997,0.01426695,-0.00047069,0.00048387,0.00171902,-0.000050
 42,0.00005266,0.00011012,-0.00052818,0.00054609,0.00022886,-0.00009376
 ,0.00009833,0.00006238,-0.00464170,0.00120615,-0.00577211,-0.00046275,
 0.00029703,0.00040122,0.00498145,-0.00156144,0.00052531,0.00310298,-0.
 00256704,0.00167412,-0.00090805,-0.00007571,-0.00073512,0.00018638,0.0
 0004425,0.00014671,0.00013276,-0.00011040,0.00018361,0.00049085,0.0016
 6320,-0.00036423,-0.00045762,0.00019799,0.00027965,0.00050134,-0.00038
 010,0.00015555,-0.00052403,-0.00021834,-0.00114791,0.00032747,0.001761
 53,-0.00048761,0.00079502,-0.00009741,-0.00142289,0.00084671,0.0002448
 7,-0.00021681,-0.00001708,-0.00011123,0.00006223,-0.00321071,-0.001474
 29,0.00459790\\-0.00000995,0.00000508,0.00000148,-0.00000079,0.0000008
 3,-0.00000036,-0.00001032,-0.00000247,-0.00000289,-0.00000484,0.000000
 26,0.00000056,0.00001724,0.00000142,0.00000687,-0.00000712,0.00000119,
 -0.00000201,0.00000458,-0.00001397,0.00000031,0.00000625,0.00000275,-0
 .00000643,-0.00001678,0.00001597,-0.00001323,0.00000916,-0.00000353,-0
 .00000073,0.00000279,0.00000018,-0.00000134,-0.00001106,0.00000978,0.0
 0000274,0.00000197,0.00000070,0.00000076,0.00000360,0.00000015,-0.0000
 0159,0.00000471,0.00000134,0.00000106,0.00000667,0.00000018,0.00001554
 ,-0.00000002,-0.00000139,-0.00000375,0.00000226,-0.00000216,-0.0000008
 2,-0.00000514,0.00000033,0.00000025,0.00000680,-0.00001665,0.00000358\
 \\@
 The archive entry for this job was punched.


 THEREFORE SHALL EVIL COME UPON THEE...
 THOU SHALT NOT KNOW FROM WHENCE IT RISETH...
 AND MISCHIEF SHALL FALL UPON THEE...
 THOU SHALT NOT BE ABLE TO PUT IT OFF...
 AND DESOLATION SHALL COME UPON THEE SUDDENLY...
 WHICH THOU SHALT NOT KNOW...

                                         ISAIAH 47.11
 Job cpu time:       0 days  0 hours 14 minutes 20.4 seconds.
 Elapsed time:       0 days  0 hours  0 minutes 54.0 seconds.
 File lengths (MBytes):  RWF=    146 Int=      0 D2E=      0 Chk=      7 Scr=      1
 Normal termination of Gaussian 16 at Mon Dec 22 19:07:45 2025.
