 Entering Gaussian System, Link 0=g16
 Initial command:
 /public/software/g16/l1.exe "/tmp/Gau-40780.inp" -scrdir="/tmp/"
 Entering Link 1 = /public/software/g16/l1.exe PID=     40782.
  
 Copyright (c) 1988-2021, Gaussian, Inc.  All Rights Reserved.
  
 This is part of the Gaussian(R) 16 program.  It is based on
 the Gaussian(R) 09 system (copyright 2009, Gaussian, Inc.),
 the Gaussian(R) 03 system (copyright 2003, Gaussian, Inc.),
 the Gaussian(R) 98 system (copyright 1998, Gaussian, Inc.),
 the Gaussian(R) 94 system (copyright 1995, Gaussian, Inc.),
 the Gaussian 92(TM) system (copyright 1992, Gaussian, Inc.),
 the Gaussian 90(TM) system (copyright 1990, Gaussian, Inc.),
 the Gaussian 88(TM) system (copyright 1988, Gaussian, Inc.),
 the Gaussian 86(TM) system (copyright 1986, Carnegie Mellon
 University), and the Gaussian 82(TM) system (copyright 1983,
 Carnegie Mellon University). Gaussian is a federally registered
 trademark of Gaussian, Inc.
  
 This software contains proprietary and confidential information,
 including trade secrets, belonging to Gaussian, Inc.
  
 This software is provided under written license and may be
 used, copied, transmitted, or stored only in accord with that
 written license.
  
 The following legend is applicable only to US Government
 contracts under FAR:
  
                    RESTRICTED RIGHTS LEGEND
  
 Use, reproduction and disclosure by the US Government is
 subject to restrictions as set forth in subparagraphs (a)
 and (c) of the Commercial Computer Software - Restricted
 Rights clause in FAR 52.227-19.
  
 Gaussian, Inc.
 340 Quinnipiac St., Bldg. 40, Wallingford CT 06492
  
  
 ---------------------------------------------------------------
 Warning -- This program may not be used in any manner that
 competes with the business of Gaussian, Inc. or will provide
 assistance to any competitor of Gaussian, Inc.  The licensee
 of this program is prohibited from giving any competitor of
 Gaussian, Inc. access to this program.  By using this program,
 the user acknowledges that Gaussian, Inc. is engaged in the
 business of creating and licensing software in the field of
 computational chemistry and represents and warrants to the
 licensee that it is not a competitor of Gaussian, Inc. and that
 it will not use this program in any manner prohibited above.
 ---------------------------------------------------------------
  

 Cite this work as:
 Gaussian 16, Revision C.02,
 M. J. Frisch, G. W. Trucks, H. B. Schlegel, G. E. Scuseria, 
 M. A. Robb, J. R. Cheeseman, G. Scalmani, V. Barone, 
 G. A. Petersson, H. Nakatsuji, X. Li, M. Caricato, A. V. Marenich, 
 J. Bloino, B. G. Janesko, R. Gomperts, B. Mennucci, H. P. Hratchian, 
 J. V. Ortiz, A. F. Izmaylov, J. L. Sonnenberg, D. Williams-Young, 
 F. Ding, F. Lipparini, F. Egidi, J. Goings, B. Peng, A. Petrone, 
 T. Henderson, D. Ranasinghe, V. G. Zakrzewski, J. Gao, N. Rega, 
 G. Zheng, W. Liang, M. Hada, M. Ehara, K. Toyota, R. Fukuda, 
 J. Hasegawa, M. Ishida, T. Nakajima, Y. Honda, O. Kitao, H. Nakai, 
 T. Vreven, K. Throssell, J. A. Montgomery, Jr., J. E. Peralta, 
 F. Ogliaro, M. J. Bearpark, J. J. Heyd, E. N. Brothers, K. N. Kudin, 
 V. N. Staroverov, T. A. Keith, R. Kobayashi, J. Normand, 
 K. Raghavachari, A. P. Rendell, J. C. Burant, S. S. Iyengar, 
 J. Tomasi, M. Cossi, J. M. Millam, M. Klene, C. Adamo, R. Cammi, 
 J. W. Ochterski, R. L. Martin, K. Morokuma, O. Farkas, 
 J. B. Foresman, and D. J. Fox, Gaussian, Inc., Wallingford CT, 2019.
 
 ******************************************
 Gaussian 16:  ES64L-G16RevC.02  7-Dec-2021
                22-Dec-2025 
 ******************************************
 %nprocshared=96
 Will use up to   96 processors via shared memory.
 %mem=50GB
 %chk=emmimcl.chk
 --------------------------------
 #p opt b3lyp/6-311+g(d,p) em=gd3
 --------------------------------
 1/18=20,19=15,26=3,38=1/1,3;
 2/9=110,12=2,17=6,18=5,40=1/2;
 3/5=4,6=6,7=111,11=2,25=1,30=1,71=1,74=-5,124=31/1,2,3;
 4//1;
 5/5=2,38=5/2;
 6/7=2,8=2,9=2,10=2,28=1/1;
 7//1,2,3,16;
 1/18=20,19=15,26=3/3(2);
 2/9=110/2;
 99//99;
 2/9=110/2;
 3/5=4,6=6,7=111,11=2,25=1,30=1,71=1,74=-5,124=31/1,2,3;
 4/5=5,16=3,69=1/1;
 5/5=2,38=5/2;
 7//1,2,3,16;
 1/18=20,19=15,26=3/3(-5);
 2/9=110/2;
 6/7=2,8=2,9=2,10=2,19=2,28=1/1;
 99/9=1/99;
 Leave Link    1 at Mon Dec 22 19:31:55 2025, MaxMem=  6710886400 cpu:               1.1 elap:               0.0
 (Enter /public/software/g16/l101.exe)
 -------------------
 Title Card Required
 -------------------
 Symbolic Z-matrix:
 Charge =  0 Multiplicity = 1
 C                     0.32989  -1.70323  -0.64775 
 H                     1.04138  -2.29327  -1.19742 
 C                    -1.01748  -1.60311  -0.76369 
 H                    -1.70348  -2.0858   -1.4371 
 C                    -0.37203  -0.22221   0.83811 
 N                     0.71432  -0.86486   0.38929 
 N                    -1.45024  -0.71278   0.20709 
 C                     2.09869  -0.5149    0.74279 
 H                     2.04449   0.08649   1.65084 
 H                     2.62301  -1.44303   0.98488 
 C                    -2.76684  -0.08159   0.2677 
 H                    -3.48679  -0.72101  -0.24084 
 H                    -3.0666    0.04093   1.30838 
 H                    -2.69155   0.89757  -0.21278 
 C                     2.79134   0.26088  -0.37556 
 H                     2.21701   1.1588   -0.61231 
 H                     3.79596   0.54271  -0.05039 
 H                     2.885    -0.34954  -1.27753 
 Cl                   -0.20542   2.24095  -0.97886 
 C                    -0.40166   0.76398   2.02055 
 H                     0.3353    0.47832   2.74178 
 H                    -0.19051   1.75147   1.66676 
 H                    -1.37038   0.74734   2.47466 
 
 Add virtual bond connecting atoms Cl19       and H16        Dist= 5.06D+00.
 Add virtual bond connecting atoms Cl19       and H22        Dist= 5.08D+00.
 ITRead=  0  0  0  0  0  0  0  0  0  0  0  0  0  0  0  0  0  0  0  0
 ITRead=  0  0  0
 MicOpt= -1 -1 -1 -1 -1 -1 -1 -1 -1 -1 -1 -1 -1 -1 -1 -1 -1 -1 -1 -1
 MicOpt= -1 -1 -1
 NAtoms=     23 NQM=       23 NQMF=       0 NMMI=      0 NMMIF=      0
                NMic=       0 NMicF=      0.
                    Isotopes and Nuclear Properties:
 (Nuclear quadrupole moments (NQMom) in fm**2, nuclear magnetic moments (NMagM)
  in nuclear magnetons)

  Atom         1           2           3           4           5           6           7           8           9          10
 IAtWgt=          12           1          12           1          12          14          14          12           1           1
 AtmWgt=  12.0000000   1.0078250  12.0000000   1.0078250  12.0000000  14.0030740  14.0030740  12.0000000   1.0078250   1.0078250
 NucSpn=           0           1           0           1           0           2           2           0           1           1
 AtZEff=  -0.0000000  -0.0000000  -0.0000000  -0.0000000  -0.0000000  -0.0000000  -0.0000000  -0.0000000  -0.0000000  -0.0000000
 NQMom=    0.0000000   0.0000000   0.0000000   0.0000000   0.0000000   2.0440000   2.0440000   0.0000000   0.0000000   0.0000000
 NMagM=    0.0000000   2.7928460   0.0000000   2.7928460   0.0000000   0.4037610   0.4037610   0.0000000   2.7928460   2.7928460
 AtZNuc=   6.0000000   1.0000000   6.0000000   1.0000000   6.0000000   7.0000000   7.0000000   6.0000000   1.0000000   1.0000000

  Atom        11          12          13          14          15          16          17          18          19          20
 IAtWgt=          12           1           1           1          12           1           1           1          35          12
 AtmWgt=  12.0000000   1.0078250   1.0078250   1.0078250  12.0000000   1.0078250   1.0078250   1.0078250  34.9688527  12.0000000
 NucSpn=           0           1           1           1           0           1           1           1           3           0
 AtZEff=  -0.0000000  -0.0000000  -0.0000000  -0.0000000  -0.0000000  -0.0000000  -0.0000000  -0.0000000  -0.0000000  -0.0000000
 NQMom=    0.0000000   0.0000000   0.0000000   0.0000000   0.0000000   0.0000000   0.0000000   0.0000000  -8.1650000   0.0000000
 NMagM=    0.0000000   2.7928460   2.7928460   2.7928460   0.0000000   2.7928460   2.7928460   2.7928460   0.8218740   0.0000000
 AtZNuc=   6.0000000   1.0000000   1.0000000   1.0000000   6.0000000   1.0000000   1.0000000   1.0000000  17.0000000   6.0000000

  Atom        21          22          23
 IAtWgt=           1           1           1
 AtmWgt=   1.0078250   1.0078250   1.0078250
 NucSpn=           1           1           1
 AtZEff=  -0.0000000  -0.0000000  -0.0000000
 NQMom=    0.0000000   0.0000000   0.0000000
 NMagM=    2.7928460   2.7928460   2.7928460
 AtZNuc=   1.0000000   1.0000000   1.0000000
 Leave Link  101 at Mon Dec 22 19:31:55 2025, MaxMem=  6710886400 cpu:               1.1 elap:               0.2
 (Enter /public/software/g16/l103.exe)

 GradGradGradGradGradGradGradGradGradGradGradGradGradGradGradGradGradGrad
 Berny optimization.
 Initialization pass.
                           ----------------------------
                           !    Initial Parameters    !
                           ! (Angstroms and Degrees)  !
 --------------------------                            --------------------------
 ! Name  Definition              Value          Derivative Info.                !
 --------------------------------------------------------------------------------
 ! R1    R(1,2)                  1.0754         estimate D2E/DX2                !
 ! R2    R(1,3)                  1.356          estimate D2E/DX2                !
 ! R3    R(1,6)                  1.3878         estimate D2E/DX2                !
 ! R4    R(3,4)                  1.0757         estimate D2E/DX2                !
 ! R5    R(3,7)                  1.3865         estimate D2E/DX2                !
 ! R6    R(5,6)                  1.3396         estimate D2E/DX2                !
 ! R7    R(5,7)                  1.3422         estimate D2E/DX2                !
 ! R8    R(5,20)                 1.54           estimate D2E/DX2                !
 ! R9    R(6,8)                  1.471          estimate D2E/DX2                !
 ! R10   R(7,11)                 1.4613         estimate D2E/DX2                !
 ! R11   R(8,9)                  1.0905         estimate D2E/DX2                !
 ! R12   R(8,10)                 1.0931         estimate D2E/DX2                !
 ! R13   R(8,15)                 1.5272         estimate D2E/DX2                !
 ! R14   R(11,12)                1.0889         estimate D2E/DX2                !
 ! R15   R(11,13)                1.0899         estimate D2E/DX2                !
 ! R16   R(11,14)                1.0933         estimate D2E/DX2                !
 ! R17   R(15,16)                1.0919         estimate D2E/DX2                !
 ! R18   R(15,17)                1.0929         estimate D2E/DX2                !
 ! R19   R(15,18)                1.0931         estimate D2E/DX2                !
 ! R20   R(16,19)                2.6784         estimate D2E/DX2                !
 ! R21   R(19,22)                2.6906         estimate D2E/DX2                !
 ! R22   R(20,21)                1.07           estimate D2E/DX2                !
 ! R23   R(20,22)                1.07           estimate D2E/DX2                !
 ! R24   R(20,23)                1.07           estimate D2E/DX2                !
 ! A1    A(2,1,3)              130.8574         estimate D2E/DX2                !
 ! A2    A(2,1,6)              122.0124         estimate D2E/DX2                !
 ! A3    A(3,1,6)              107.1283         estimate D2E/DX2                !
 ! A4    A(1,3,4)              130.8482         estimate D2E/DX2                !
 ! A5    A(1,3,7)              107.3181         estimate D2E/DX2                !
 ! A6    A(4,3,7)              121.8313         estimate D2E/DX2                !
 ! A7    A(6,5,7)              108.578          estimate D2E/DX2                !
 ! A8    A(6,5,20)             125.4546         estimate D2E/DX2                !
 ! A9    A(7,5,20)             125.4223         estimate D2E/DX2                !
 ! A10   A(1,6,5)              108.3916         estimate D2E/DX2                !
 ! A11   A(1,6,8)              125.7298         estimate D2E/DX2                !
 ! A12   A(5,6,8)              124.6476         estimate D2E/DX2                !
 ! A13   A(3,7,5)              108.2494         estimate D2E/DX2                !
 ! A14   A(3,7,11)             125.9876         estimate D2E/DX2                !
 ! A15   A(5,7,11)             123.1203         estimate D2E/DX2                !
 ! A16   A(6,8,9)              106.5309         estimate D2E/DX2                !
 ! A17   A(6,8,10)             107.6156         estimate D2E/DX2                !
 ! A18   A(6,8,15)             111.8203         estimate D2E/DX2                !
 ! A19   A(9,8,10)             107.9185         estimate D2E/DX2                !
 ! A20   A(9,8,15)             110.6207         estimate D2E/DX2                !
 ! A21   A(10,8,15)            112.0821         estimate D2E/DX2                !
 ! A22   A(7,11,12)            108.8241         estimate D2E/DX2                !
 ! A23   A(7,11,13)            109.6304         estimate D2E/DX2                !
 ! A24   A(7,11,14)            107.852          estimate D2E/DX2                !
 ! A25   A(12,11,13)           109.2743         estimate D2E/DX2                !
 ! A26   A(12,11,14)           111.4802         estimate D2E/DX2                !
 ! A27   A(13,11,14)           109.7492         estimate D2E/DX2                !
 ! A28   A(8,15,16)            109.7531         estimate D2E/DX2                !
 ! A29   A(8,15,17)            109.2702         estimate D2E/DX2                !
 ! A30   A(8,15,18)            111.0653         estimate D2E/DX2                !
 ! A31   A(16,15,17)           109.6313         estimate D2E/DX2                !
 ! A32   A(16,15,18)           108.9887         estimate D2E/DX2                !
 ! A33   A(17,15,18)           108.1037         estimate D2E/DX2                !
 ! A34   A(15,16,19)           146.8968         estimate D2E/DX2                !
 ! A35   A(16,19,22)            77.6968         estimate D2E/DX2                !
 ! A36   A(5,20,21)            109.4712         estimate D2E/DX2                !
 ! A37   A(5,20,22)            109.4712         estimate D2E/DX2                !
 ! A38   A(5,20,23)            109.4712         estimate D2E/DX2                !
 ! A39   A(21,20,22)           109.4713         estimate D2E/DX2                !
 ! A40   A(21,20,23)           109.4712         estimate D2E/DX2                !
 ! A41   A(22,20,23)           109.4712         estimate D2E/DX2                !
 ! A42   A(19,22,20)           119.467          estimate D2E/DX2                !
 ! D1    D(2,1,3,4)             -0.3452         estimate D2E/DX2                !
 ! D2    D(2,1,3,7)            179.0892         estimate D2E/DX2                !
 ! D3    D(6,1,3,4)           -179.8341         estimate D2E/DX2                !
 ! D4    D(6,1,3,7)             -0.3997         estimate D2E/DX2                !
 ! D5    D(2,1,6,5)            177.2803         estimate D2E/DX2                !
 ! D6    D(2,1,6,8)              9.5312         estimate D2E/DX2                !
 ! D7    D(3,1,6,5)             -3.1756         estimate D2E/DX2                !
 ! D8    D(3,1,6,8)           -170.9247         estimate D2E/DX2                !
 ! D9    D(1,3,7,5)              3.8279         estimate D2E/DX2                !
 ! D10   D(1,3,7,11)           165.7257         estimate D2E/DX2                !
 ! D11   D(4,3,7,5)           -176.6757         estimate D2E/DX2                !
 ! D12   D(4,3,7,11)           -14.7779         estimate D2E/DX2                !
 ! D13   D(7,5,6,1)              5.6138         estimate D2E/DX2                !
 ! D14   D(7,5,6,8)            173.5275         estimate D2E/DX2                !
 ! D15   D(20,5,6,1)           177.5017         estimate D2E/DX2                !
 ! D16   D(20,5,6,8)           -14.5847         estimate D2E/DX2                !
 ! D17   D(6,5,7,3)             -5.858          estimate D2E/DX2                !
 ! D18   D(6,5,7,11)          -168.3893         estimate D2E/DX2                !
 ! D19   D(20,5,7,3)          -177.7491         estimate D2E/DX2                !
 ! D20   D(20,5,7,11)           19.7196         estimate D2E/DX2                !
 ! D21   D(6,5,20,21)          -31.5987         estimate D2E/DX2                !
 ! D22   D(6,5,20,22)           88.4013         estimate D2E/DX2                !
 ! D23   D(6,5,20,23)         -151.5987         estimate D2E/DX2                !
 ! D24   D(7,5,20,21)          138.954          estimate D2E/DX2                !
 ! D25   D(7,5,20,22)         -101.046          estimate D2E/DX2                !
 ! D26   D(7,5,20,23)           18.954          estimate D2E/DX2                !
 ! D27   D(1,6,8,9)           -175.1501         estimate D2E/DX2                !
 ! D28   D(1,6,8,10)           -59.6217         estimate D2E/DX2                !
 ! D29   D(1,6,8,15)            63.8825         estimate D2E/DX2                !
 ! D30   D(5,6,8,9)             19.0176         estimate D2E/DX2                !
 ! D31   D(5,6,8,10)           134.5459         estimate D2E/DX2                !
 ! D32   D(5,6,8,15)          -101.9498         estimate D2E/DX2                !
 ! D33   D(3,7,11,12)           26.182          estimate D2E/DX2                !
 ! D34   D(3,7,11,13)          145.6446         estimate D2E/DX2                !
 ! D35   D(3,7,11,14)          -94.8979         estimate D2E/DX2                !
 ! D36   D(5,7,11,12)         -174.4479         estimate D2E/DX2                !
 ! D37   D(5,7,11,13)          -54.9853         estimate D2E/DX2                !
 ! D38   D(5,7,11,14)           64.4722         estimate D2E/DX2                !
 ! D39   D(6,8,15,16)           56.903          estimate D2E/DX2                !
 ! D40   D(6,8,15,17)          177.1483         estimate D2E/DX2                !
 ! D41   D(6,8,15,18)          -63.6809         estimate D2E/DX2                !
 ! D42   D(9,8,15,16)          -61.6604         estimate D2E/DX2                !
 ! D43   D(9,8,15,17)           58.5848         estimate D2E/DX2                !
 ! D44   D(9,8,15,18)          177.7557         estimate D2E/DX2                !
 ! D45   D(10,8,15,16)         177.8486         estimate D2E/DX2                !
 ! D46   D(10,8,15,17)         -61.9062         estimate D2E/DX2                !
 ! D47   D(10,8,15,18)          57.2647         estimate D2E/DX2                !
 ! D48   D(8,15,16,19)         -41.0121         estimate D2E/DX2                !
 ! D49   D(17,15,16,19)       -161.0377         estimate D2E/DX2                !
 ! D50   D(18,15,16,19)         80.8212         estimate D2E/DX2                !
 ! D51   D(15,16,19,22)         69.4585         estimate D2E/DX2                !
 ! D52   D(16,19,22,20)        -80.8801         estimate D2E/DX2                !
 ! D53   D(5,20,22,19)          12.1833         estimate D2E/DX2                !
 ! D54   D(21,20,22,19)        132.1833         estimate D2E/DX2                !
 ! D55   D(23,20,22,19)       -107.8167         estimate D2E/DX2                !
 --------------------------------------------------------------------------------
 Trust Radius=3.00D-01 FncErr=1.00D-07 GrdErr=1.00D-06 EigMax=2.50D+02 EigMin=1.00D-04
 Number of steps in this run=    131 maximum allowed number of steps=    138.
 GradGradGradGradGradGradGradGradGradGradGradGradGradGradGradGradGradGrad

 Leave Link  103 at Mon Dec 22 19:31:55 2025, MaxMem=  6710886400 cpu:               1.0 elap:               0.0
 (Enter /public/software/g16/l202.exe)
                          Input orientation:                          
 ---------------------------------------------------------------------
 Center     Atomic      Atomic             Coordinates (Angstroms)
 Number     Number       Type             X           Y           Z
 ---------------------------------------------------------------------
      1          6           0        0.329885   -1.703231   -0.647752
      2          1           0        1.041378   -2.293268   -1.197421
      3          6           0       -1.017477   -1.603110   -0.763689
      4          1           0       -1.703482   -2.085796   -1.437095
      5          6           0       -0.372027   -0.222211    0.838110
      6          7           0        0.714321   -0.864855    0.389287
      7          7           0       -1.450236   -0.712783    0.207088
      8          6           0        2.098687   -0.514900    0.742790
      9          1           0        2.044489    0.086490    1.650844
     10          1           0        2.623013   -1.443027    0.984882
     11          6           0       -2.766843   -0.081590    0.267703
     12          1           0       -3.486790   -0.721012   -0.240843
     13          1           0       -3.066598    0.040928    1.308378
     14          1           0       -2.691552    0.897566   -0.212784
     15          6           0        2.791337    0.260884   -0.375564
     16          1           0        2.217014    1.158799   -0.612312
     17          1           0        3.795963    0.542713   -0.050392
     18          1           0        2.884999   -0.349535   -1.277534
     19         17           0       -0.205424    2.240946   -0.978859
     20          6           0       -0.401664    0.763975    2.020547
     21          1           0        0.335304    0.478322    2.741782
     22          1           0       -0.190514    1.751472    1.666760
     23          1           0       -1.370376    0.747339    2.474664
 ---------------------------------------------------------------------
                    Distance matrix (angstroms):
                    1          2          3          4          5
     1  C    0.000000
     2  H    1.075408   0.000000
     3  C    1.356042   2.214345   0.000000
     4  H    2.214498   2.763104   1.075669   0.000000
     5  C    2.212213   3.229609   2.211164   3.228356   0.000000
     6  N    1.387846   2.159855   2.207600   3.266824   1.339621
     7  N    2.209201   3.267831   1.386496   2.156997   1.342157
     8  C    2.544484   2.836356   3.628244   4.655760   2.489815
     9  H    3.380312   3.844749   4.249747   5.319914   2.568148
    10  H    2.826948   2.826115   4.041818   4.999768   3.237622
    11  C    3.613517   4.641191   2.537533   2.837942   2.465823
    12  H    3.961987   4.887876   2.673756   2.544375   3.333870
    13  H    4.290062   5.348174   3.345926   3.730772   2.747928
    14  H    4.010290   5.008562   3.059314   3.372784   2.781811
    15  C    3.160788   3.203357   4.258190   5.180459   3.422464
    16  H    3.428371   3.693405   4.255936   5.155381   3.273232
    17  H    4.173104   4.116577   5.318134   6.251072   4.329744
    18  H    2.959345   2.680197   4.130957   4.908586   3.885921
    19  Cl   3.994086   4.707588   3.934780   4.601614   3.065335
    20  C    3.707033   4.667379   3.705980   4.665964   1.540000
    21  H    4.030899   4.868015   4.295428   5.309837   2.148263
    22  H    4.190794   5.106957   4.224236   5.162133   2.148263
    23  H    4.318062   5.342850   4.016973   4.841432   2.148263
                    6          7          8          9         10
     6  N    0.000000
     7  N    2.177528   0.000000
     8  C    1.471021   3.594578   0.000000
     9  H    2.065413   3.864760   1.090490   0.000000
    10  H    2.081375   4.210650   1.093136   1.765678   0.000000
    11  C    3.570265   1.461346   4.907835   5.009016   5.605212
    12  H    4.250540   2.085249   5.675171   5.901321   6.273229
    13  H    3.995062   2.096079   5.225802   5.122750   5.888841
    14  H    3.881828   2.076146   5.084739   5.153740   5.929366
    15  C    2.483200   4.390723   1.527194   2.166685   2.186883
    16  H    2.712280   4.197971   2.156750   2.510276   3.079832
    17  H    3.416297   5.400479   2.151378   2.483949   2.527997
    18  H    2.784904   4.596772   2.174245   3.077657   2.526438
    19  Cl   3.516213   3.417681   3.983427   4.076657   5.042618
    20  C    2.561156   2.562997   3.085440   2.565021   3.884860
    21  H    2.735327   3.321379   2.844640   2.065185   3.465818
    22  H    3.048906   3.128913   3.351209   2.787051   4.311115
    23  H    3.360643   2.698190   4.077625   3.574451   4.792108
                   11         12         13         14         15
    11  C    0.000000
    12  H    1.088946   0.000000
    13  H    1.089894   1.776851   0.000000
    14  H    1.093290   1.803603   1.785615   0.000000
    15  C    5.605751   6.355875   6.099135   5.522131   0.000000
    16  H    5.210741   6.017064   5.731949   4.931722   1.091855
    17  H    6.600103   7.394036   7.013757   6.499242   1.092903
    18  H    5.865396   6.466252   6.500839   5.812648   1.093130
    19  Cl   3.675453   4.481654   4.272920   2.927861   3.642141
    20  C    3.062926   4.103301   2.851641   3.201437   4.023644
    21  H    4.007229   4.994283   3.717378   4.250540   3.974572
    22  H    3.457593   4.540657   3.365451   3.242998   3.909523
    23  H    2.740058   3.742892   2.176329   2.998408   5.067572
                   16         17         18         19         20
    16  H    0.000000
    17  H    1.785608   0.000000
    18  H    1.778706   1.769700   0.000000
    19  Cl   2.678359   4.444901   4.043577   0.000000
    20  C    3.734342   4.685917   4.787421   3.349088   0.000000
    21  H    3.905615   4.447082   4.831272   4.152397   1.070000
    22  H    3.367732   4.505741   4.747828   2.690559   1.070000
    23  H    4.750587   5.754027   5.778437   3.938882   1.070000
                   21         22         23
    21  H    0.000000
    22  H    1.747303   0.000000
    23  H    1.747303   1.747303   0.000000
 Stoichiometry    C7H13ClN2
 Framework group  C1[X(C7H13ClN2)]
 Deg. of freedom    63
 Full point group                 C1      NOp   1
 Largest Abelian subgroup         C1      NOp   1
 Largest concise Abelian subgroup C1      NOp   1
                         Standard orientation:                         
 ---------------------------------------------------------------------
 Center     Atomic      Atomic             Coordinates (Angstroms)
 Number     Number       Type             X           Y           Z
 ---------------------------------------------------------------------
      1          6           0        0.382031   -1.643550   -0.993582
      2          1           0        1.112761   -2.136333   -1.609781
      3          6           0       -0.960512   -1.518324   -1.137623
      4          1           0       -1.622162   -1.877181   -1.906066
      5          6           0       -0.372551   -0.430160    0.695257
      6          7           0        0.729307   -0.993727    0.182532
      7          7           0       -1.427644   -0.801882   -0.046354
      8          6           0        2.100191   -0.715490    0.637685
      9          1           0        2.013788   -0.275271    1.631621
     10          1           0        2.616365   -1.673844    0.738027
     11          6           0       -2.746010   -0.183052    0.074036
     12          1           0       -3.447247   -0.723982   -0.559576
     13          1           0       -3.082129   -0.235910    1.109458
     14          1           0       -2.654618    0.862610   -0.231777
     15          6           0        2.831054    0.233868   -0.309352
     16          1           0        2.264748    1.161802   -0.411251
     17          1           0        3.823472    0.451699    0.093257
     18          1           0        2.956690   -0.216482   -1.297449
     19         17           0       -0.144121    2.302812   -0.674034
     20          6           0       -0.444293    0.343042    2.025149
     21          1           0        0.267154   -0.063782    2.713072
     22          1           0       -0.221570    1.374889    1.850261
     23          1           0       -1.428308    0.255242    2.436129
 ---------------------------------------------------------------------
 Rotational constants (GHZ):           1.1766449           1.0076432           0.7621542
 Leave Link  202 at Mon Dec 22 19:31:55 2025, MaxMem=  6710886400 cpu:               1.5 elap:               0.0
 (Enter /public/software/g16/l301.exe)
 Standard basis: 6-311+G(d,p) (5D, 7F)
 Ernie: Thresh=  0.10000D-02 Tol=  0.10000D-05 Strict=F.
 There are   316 symmetry adapted cartesian basis functions of A   symmetry.
 There are   306 symmetry adapted basis functions of A   symmetry.
   306 basis functions,   481 primitive gaussians,   316 cartesian basis functions
    43 alpha electrons       43 beta electrons
       nuclear repulsion energy       643.4470823688 Hartrees.
 IExCor=  402 DFT=T Ex+Corr=B3LYP ExCW=0 ScaHFX=  0.200000
 ScaDFX=  0.800000  0.720000  1.000000  0.810000 ScalE2=  1.000000  1.000000
 IRadAn=      5 IRanWt=     -1 IRanGd=            0 ICorTp=0 IEmpDi=131
 NAtoms=   23 NActive=   23 NUniq=   23 SFac= 1.00D+00 NAtFMM=   60 NAOKFM=F Big=F
 Integral buffers will be    131072 words long.
 Raffenetti 2 integral format.
 Two-electron integral symmetry is turned on.
 R6Disp:  Grimme-D3 Dispersion energy=       -0.0230913849 Hartrees.
 Nuclear repulsion after empirical dispersion term =      643.4239909839 Hartrees.
 Leave Link  301 at Mon Dec 22 19:31:55 2025, MaxMem=  6710886400 cpu:               1.0 elap:               0.1
 (Enter /public/software/g16/l302.exe)
 NPDir=0 NMtPBC=     1 NCelOv=     1 NCel=       1 NClECP=     1 NCelD=      1
         NCelK=      1 NCelE2=     1 NClLst=     1 CellRange=     0.0.
 One-electron integrals computed using PRISM.
 One-electron integral symmetry used in STVInt
 NBasis=   306 RedAO= T EigKep=  1.25D-05  NBF=   306
 NBsUse=   306 1.00D-06 EigRej= -1.00D+00 NBFU=   306
 Precomputing XC quadrature grid using
 IXCGrd= 4 IRadAn=           5 IRanWt=          -1 IRanGd=           0 AccXCQ= 0.00D+00.
 Generated NRdTot=       0 NPtTot=           0 NUsed=           0 NTot=          32
 NSgBfM=   316   316   316   316   316 MxSgAt=    23 MxSgA2=    23.
 Leave Link  302 at Mon Dec 22 19:31:56 2025, MaxMem=  6710886400 cpu:              17.7 elap:               0.3
 (Enter /public/software/g16/l303.exe)
 DipDrv:  MaxL=1.
 Leave Link  303 at Mon Dec 22 19:31:56 2025, MaxMem=  6710886400 cpu:               1.3 elap:               0.0
 (Enter /public/software/g16/l401.exe)
 ExpMin= 4.38D-02 ExpMax= 1.06D+05 ExpMxC= 3.62D+03 IAcc=3 IRadAn=         5 AccDes= 0.00D+00
 Harris functional with IExCor=  402 and IRadAn=       5 diagonalized for initial guess.
 HarFok:  IExCor=  402 AccDes= 0.00D+00 IRadAn=         5 IDoV= 1 UseB2=F ITyADJ=14
 ICtDFT=  3500011 ScaDFX=  1.000000  1.000000  1.000000  1.000000
 FoFCou: FMM=F IPFlag=           0 FMFlag=      100000 FMFlg1=           0
         NFxFlg=           0 DoJE=T BraDBF=F KetDBF=T FulRan=T
         wScrn=  0.000000 ICntrl=       500 IOpCl=  0 I1Cent=   200000004 NGrid=           0
         NMat0=    1 NMatS0=      1 NMatT0=    0 NMatD0=    1 NMtDS0=    0 NMtDT0=    0
 Petite list used in FoFCou.
 Harris En= -844.390769418902    
 JPrj=0 DoOrth=F DoCkMO=F.
 Leave Link  401 at Mon Dec 22 19:31:56 2025, MaxMem=  6710886400 cpu:              27.1 elap:               0.4
 (Enter /public/software/g16/l502.exe)
 Integral symmetry usage will be decided dynamically.
 Closed shell SCF:
 Using DIIS extrapolation, IDIIS=  1040.
 NGot=  6710886400 LenX=  6710652623 LenY=  6710552326
 Requested convergence on RMS density matrix=1.00D-08 within 128 cycles.
 Requested convergence on MAX density matrix=1.00D-06.
 Requested convergence on             energy=1.00D-06.
 No special actions if energy rises.
 Fock matrices will be formed incrementally for  20 cycles.

 Cycle   1  Pass 1  IDiag  1:
 FoFJK:  IHMeth= 1 ICntrl=       0 DoSepK=F KAlg= 0 I1Cent=           0 FoldK=F
 IRaf= 940000000 NMat=       1 IRICut=       1 DoRegI=T DoRafI=F ISym2E= 0 IDoP0=0 IntGTp=1.
 FoFCou: FMM=F IPFlag=           0 FMFlag=      100000 FMFlg1=           0
         NFxFlg=           0 DoJE=F BraDBF=F KetDBF=F FulRan=T
         wScrn=  0.000000 ICntrl=         0 IOpCl=  0 I1Cent=           0 NGrid=           0
         NMat0=    1 NMatS0=      1 NMatT0=    0 NMatD0=    1 NMtDS0=    0 NMtDT0=    0
 Symmetry not used in FoFCou.
 E= -844.176488127218    
 DIIS: error= 1.88D-02 at cycle   1 NSaved=   1.
 NSaved= 1 IEnMin= 1 EnMin= -844.176488127218     IErMin= 1 ErrMin= 1.88D-02
 ErrMax= 1.88D-02  0.00D+00 EMaxC= 1.00D-01 BMatC= 2.92D-01 BMatP= 2.92D-01
 IDIUse=3 WtCom= 8.12D-01 WtEn= 1.88D-01
 Coeff-Com:  0.100D+01
 Coeff-En:   0.100D+01
 Coeff:      0.100D+01
 Gap=     0.086 Goal=   None    Shift=    0.000
 GapD=    0.086 DampG=0.500 DampE=0.500 DampFc=0.2500 IDamp=-1.
 Damping current iteration by 2.50D-01
 RMSDP=1.74D-02 MaxDP=2.10D+00              OVMax= 1.94D-01

 Cycle   2  Pass 1  IDiag  1:
 RMSU=  4.28D-03    CP:  1.05D+00
 E= -844.269319187631     Delta-E=       -0.092831060412 Rises=F Damp=T
 DIIS: error= 9.17D-03 at cycle   2 NSaved=   2.
 NSaved= 2 IEnMin= 2 EnMin= -844.269319187631     IErMin= 2 ErrMin= 9.17D-03
 ErrMax= 9.17D-03  0.00D+00 EMaxC= 1.00D-01 BMatC= 8.94D-02 BMatP= 2.92D-01
 IDIUse=3 WtCom= 9.08D-01 WtEn= 9.17D-02
 Coeff-Com: -0.962D+00 0.196D+01
 Coeff-En:   0.000D+00 0.100D+01
 Coeff:     -0.874D+00 0.187D+01
 Gap=     0.172 Goal=   None    Shift=    0.000
 RMSDP=5.20D-03 MaxDP=6.22D-01 DE=-9.28D-02 OVMax= 1.13D-01

 Cycle   3  Pass 1  IDiag  1:
 RMSU=  2.56D-03    CP:  1.09D+00  2.05D+00
 E= -844.427581503725     Delta-E=       -0.158262316095 Rises=F Damp=F
 DIIS: error= 4.29D-03 at cycle   3 NSaved=   3.
 NSaved= 3 IEnMin= 3 EnMin= -844.427581503725     IErMin= 3 ErrMin= 4.29D-03
 ErrMax= 4.29D-03  0.00D+00 EMaxC= 1.00D-01 BMatC= 7.57D-03 BMatP= 8.94D-02
 IDIUse=3 WtCom= 9.57D-01 WtEn= 4.29D-02
 Coeff-Com: -0.361D+00 0.671D+00 0.689D+00
 Coeff-En:   0.000D+00 0.000D+00 0.100D+01
 Coeff:     -0.345D+00 0.643D+00 0.703D+00
 Gap=     0.153 Goal=   None    Shift=    0.000
 RMSDP=2.23D-03 MaxDP=2.59D-01 DE=-1.58D-01 OVMax= 3.76D-02

 Cycle   4  Pass 1  IDiag  1:
 RMSU=  1.06D-03    CP:  1.13D+00  2.49D+00  9.02D-01
 E= -844.430917378757     Delta-E=       -0.003335875032 Rises=F Damp=F
 DIIS: error= 3.22D-03 at cycle   4 NSaved=   4.
 NSaved= 4 IEnMin= 4 EnMin= -844.430917378757     IErMin= 4 ErrMin= 3.22D-03
 ErrMax= 3.22D-03  0.00D+00 EMaxC= 1.00D-01 BMatC= 3.32D-03 BMatP= 7.57D-03
 IDIUse=3 WtCom= 9.68D-01 WtEn= 3.22D-02
 Coeff-Com: -0.102D+00 0.173D+00 0.415D+00 0.514D+00
 Coeff-En:   0.000D+00 0.000D+00 0.351D+00 0.649D+00
 Coeff:     -0.988D-01 0.168D+00 0.413D+00 0.518D+00
 Gap=     0.154 Goal=   None    Shift=    0.000
 RMSDP=1.86D-03 MaxDP=2.29D-01 DE=-3.34D-03 OVMax= 2.16D-02

 Cycle   5  Pass 1  IDiag  1:
 RMSU=  4.75D-04    CP:  1.09D+00  2.11D+00  9.16D-01  4.17D-01
 E= -844.434154372237     Delta-E=       -0.003236993479 Rises=F Damp=F
 DIIS: error= 8.00D-04 at cycle   5 NSaved=   5.
 NSaved= 5 IEnMin= 5 EnMin= -844.434154372237     IErMin= 5 ErrMin= 8.00D-04
 ErrMax= 8.00D-04  0.00D+00 EMaxC= 1.00D-01 BMatC= 1.31D-04 BMatP= 3.32D-03
 IDIUse=3 WtCom= 9.92D-01 WtEn= 8.00D-03
 Coeff-Com: -0.250D-01 0.379D-01 0.146D+00 0.255D+00 0.587D+00
 Coeff-En:   0.000D+00 0.000D+00 0.000D+00 0.000D+00 0.100D+01
 Coeff:     -0.248D-01 0.376D-01 0.144D+00 0.253D+00 0.590D+00
 Gap=     0.154 Goal=   None    Shift=    0.000
 RMSDP=4.88D-04 MaxDP=6.37D-02 DE=-3.24D-03 OVMax= 4.54D-03

 Cycle   6  Pass 1  IDiag  1:
 RMSU=  7.49D-05    CP:  1.10D+00  2.21D+00  9.40D-01  5.32D-01  6.55D-01
 E= -844.434269849938     Delta-E=       -0.000115477701 Rises=F Damp=F
 DIIS: error= 2.17D-04 at cycle   6 NSaved=   6.
 NSaved= 6 IEnMin= 6 EnMin= -844.434269849938     IErMin= 6 ErrMin= 2.17D-04
 ErrMax= 2.17D-04  0.00D+00 EMaxC= 1.00D-01 BMatC= 1.34D-05 BMatP= 1.31D-04
 IDIUse=3 WtCom= 9.98D-01 WtEn= 2.17D-03
 Coeff-Com: -0.704D-02 0.957D-02 0.488D-01 0.106D+00 0.331D+00 0.512D+00
 Coeff-En:   0.000D+00 0.000D+00 0.000D+00 0.000D+00 0.000D+00 0.100D+01
 Coeff:     -0.702D-02 0.955D-02 0.487D-01 0.106D+00 0.330D+00 0.513D+00
 Gap=     0.153 Goal=   None    Shift=    0.000
 RMSDP=5.66D-05 MaxDP=7.35D-03 DE=-1.15D-04 OVMax= 1.38D-03

 Cycle   7  Pass 1  IDiag  1:
 RMSU=  2.35D-05    CP:  1.10D+00  2.22D+00  9.43D-01  5.37D-01  6.35D-01
                    CP:  8.51D-01
 E= -844.434281822302     Delta-E=       -0.000011972365 Rises=F Damp=F
 DIIS: error= 8.50D-05 at cycle   7 NSaved=   7.
 NSaved= 7 IEnMin= 7 EnMin= -844.434281822302     IErMin= 7 ErrMin= 8.50D-05
 ErrMax= 8.50D-05  0.00D+00 EMaxC= 1.00D-01 BMatC= 1.34D-06 BMatP= 1.34D-05
 IDIUse=1 WtCom= 1.00D+00 WtEn= 0.00D+00
 Coeff-Com: -0.178D-02 0.192D-02 0.150D-01 0.403D-01 0.141D+00 0.296D+00
 Coeff-Com:  0.507D+00
 Coeff:     -0.178D-02 0.192D-02 0.150D-01 0.403D-01 0.141D+00 0.296D+00
 Coeff:      0.507D+00
 Gap=     0.153 Goal=   None    Shift=    0.000
 RMSDP=1.74D-05 MaxDP=1.13D-03 DE=-1.20D-05 OVMax= 4.36D-04

 Cycle   8  Pass 1  IDiag  1:
 RMSU=  8.21D-06    CP:  1.10D+00  2.22D+00  9.41D-01  5.38D-01  6.54D-01
                    CP:  8.08D-01  7.46D-01
 E= -844.434282871390     Delta-E=       -0.000001049088 Rises=F Damp=F
 DIIS: error= 2.92D-05 at cycle   8 NSaved=   8.
 NSaved= 8 IEnMin= 8 EnMin= -844.434282871390     IErMin= 8 ErrMin= 2.92D-05
 ErrMax= 2.92D-05  0.00D+00 EMaxC= 1.00D-01 BMatC= 1.62D-07 BMatP= 1.34D-06
 IDIUse=1 WtCom= 1.00D+00 WtEn= 0.00D+00
 Coeff-Com: -0.129D-03-0.993D-04 0.189D-02 0.844D-02 0.332D-01 0.926D-01
 Coeff-Com:  0.289D+00 0.575D+00
 Coeff:     -0.129D-03-0.993D-04 0.189D-02 0.844D-02 0.332D-01 0.926D-01
 Coeff:      0.289D+00 0.575D+00
 Gap=     0.153 Goal=   None    Shift=    0.000
 RMSDP=7.96D-06 MaxDP=9.42D-04 DE=-1.05D-06 OVMax= 1.59D-04

 Cycle   9  Pass 1  IDiag  1:
 RMSU=  3.22D-06    CP:  1.10D+00  2.21D+00  9.40D-01  5.38D-01  6.60D-01
                    CP:  8.13D-01  7.66D-01  6.80D-01
 E= -844.434283012951     Delta-E=       -0.000000141561 Rises=F Damp=F
 DIIS: error= 1.01D-05 at cycle   9 NSaved=   9.
 NSaved= 9 IEnMin= 9 EnMin= -844.434283012951     IErMin= 9 ErrMin= 1.01D-05
 ErrMax= 1.01D-05  0.00D+00 EMaxC= 1.00D-01 BMatC= 1.82D-08 BMatP= 1.62D-07
 IDIUse=1 WtCom= 1.00D+00 WtEn= 0.00D+00
 Coeff-Com:  0.102D-03-0.204D-03-0.709D-03-0.437D-04 0.148D-02 0.173D-01
 Coeff-Com:  0.939D-01 0.310D+00 0.578D+00
 Coeff:      0.102D-03-0.204D-03-0.709D-03-0.437D-04 0.148D-02 0.173D-01
 Coeff:      0.939D-01 0.310D+00 0.578D+00
 Gap=     0.153 Goal=   None    Shift=    0.000
 RMSDP=3.91D-06 MaxDP=5.25D-04 DE=-1.42D-07 OVMax= 6.99D-05

 Cycle  10  Pass 1  IDiag  1:
 RMSU=  6.27D-07    CP:  1.10D+00  2.22D+00  9.41D-01  5.39D-01  6.57D-01
                    CP:  8.20D-01  7.86D-01  7.61D-01  6.91D-01
 E= -844.434283028572     Delta-E=       -0.000000015621 Rises=F Damp=F
 DIIS: error= 3.09D-06 at cycle  10 NSaved=  10.
 NSaved=10 IEnMin=10 EnMin= -844.434283028572     IErMin=10 ErrMin= 3.09D-06
 ErrMax= 3.09D-06  0.00D+00 EMaxC= 1.00D-01 BMatC= 2.51D-09 BMatP= 1.82D-08
 IDIUse=1 WtCom= 1.00D+00 WtEn= 0.00D+00
 Coeff-Com:  0.869D-04-0.127D-03-0.715D-03-0.122D-02-0.387D-02-0.187D-02
 Coeff-Com:  0.157D-01 0.106D+00 0.339D+00 0.547D+00
 Coeff:      0.869D-04-0.127D-03-0.715D-03-0.122D-02-0.387D-02-0.187D-02
 Coeff:      0.157D-01 0.106D+00 0.339D+00 0.547D+00
 Gap=     0.153 Goal=   None    Shift=    0.000
 RMSDP=2.28D-06 MaxDP=2.92D-04 DE=-1.56D-08 OVMax= 1.08D-05

 Cycle  11  Pass 1  IDiag  1:
 RMSU=  2.77D-07    CP:  1.10D+00  2.22D+00  9.41D-01  5.39D-01  6.56D-01
                    CP:  8.24D-01  7.95D-01  7.51D-01  7.01D-01  1.09D+00
 E= -844.434283030633     Delta-E=       -0.000000002061 Rises=F Damp=F
 DIIS: error= 5.40D-07 at cycle  11 NSaved=  11.
 NSaved=11 IEnMin=11 EnMin= -844.434283030633     IErMin=11 ErrMin= 5.40D-07
 ErrMax= 5.40D-07  0.00D+00 EMaxC= 1.00D-01 BMatC= 9.22D-11 BMatP= 2.51D-09
 IDIUse=1 WtCom= 1.00D+00 WtEn= 0.00D+00
 Coeff-Com:  0.162D-04-0.187D-04-0.193D-03-0.437D-03-0.162D-02-0.193D-02
 Coeff-Com: -0.314D-02 0.125D-01 0.918D-01 0.215D+00 0.688D+00
 Coeff:      0.162D-04-0.187D-04-0.193D-03-0.437D-03-0.162D-02-0.193D-02
 Coeff:     -0.314D-02 0.125D-01 0.918D-01 0.215D+00 0.688D+00
 Gap=     0.153 Goal=   None    Shift=    0.000
 RMSDP=2.83D-07 MaxDP=2.78D-05 DE=-2.06D-09 OVMax= 4.42D-06

 Cycle  12  Pass 1  IDiag  1:
 RMSU=  7.73D-08    CP:  1.10D+00  2.22D+00  9.41D-01  5.39D-01  6.56D-01
                    CP:  8.24D-01  7.94D-01  7.57D-01  7.28D-01  1.03D+00
                    CP:  8.57D-01
 E= -844.434283030726     Delta-E=       -0.000000000093 Rises=F Damp=F
 DIIS: error= 1.48D-07 at cycle  12 NSaved=  12.
 NSaved=12 IEnMin=12 EnMin= -844.434283030726     IErMin=12 ErrMin= 1.48D-07
 ErrMax= 1.48D-07  0.00D+00 EMaxC= 1.00D-01 BMatC= 8.48D-12 BMatP= 9.22D-11
 IDIUse=1 WtCom= 1.00D+00 WtEn= 0.00D+00
 Coeff-Com:  0.113D-05 0.329D-06-0.442D-04-0.116D-03-0.454D-03-0.669D-03
 Coeff-Com: -0.219D-02-0.115D-02 0.170D-01 0.430D-01 0.287D+00 0.658D+00
 Coeff:      0.113D-05 0.329D-06-0.442D-04-0.116D-03-0.454D-03-0.669D-03
 Coeff:     -0.219D-02-0.115D-02 0.170D-01 0.430D-01 0.287D+00 0.658D+00
 Gap=     0.153 Goal=   None    Shift=    0.000
 RMSDP=4.78D-08 MaxDP=5.24D-06 DE=-9.28D-11 OVMax= 8.46D-07

 Cycle  13  Pass 1  IDiag  1:
 RMSU=  1.80D-08    CP:  1.10D+00  2.22D+00  9.41D-01  5.39D-01  6.56D-01
                    CP:  8.24D-01  7.93D-01  7.57D-01  7.31D-01  1.05D+00
                    CP:  8.99D-01  8.97D-01
 E= -844.434283030721     Delta-E=        0.000000000005 Rises=F Damp=F
 DIIS: error= 3.52D-08 at cycle  13 NSaved=  13.
 NSaved=13 IEnMin=12 EnMin= -844.434283030726     IErMin=13 ErrMin= 3.52D-08
 ErrMax= 3.52D-08  0.00D+00 EMaxC= 1.00D-01 BMatC= 6.90D-13 BMatP= 8.48D-12
 IDIUse=1 WtCom= 1.00D+00 WtEn= 0.00D+00
 Coeff-Com: -0.192D-05 0.306D-05 0.229D-05-0.118D-05-0.257D-04-0.930D-04
 Coeff-Com: -0.670D-03-0.183D-02-0.204D-02-0.513D-02 0.620D-01 0.262D+00
 Coeff-Com:  0.685D+00
 Coeff:     -0.192D-05 0.306D-05 0.229D-05-0.118D-05-0.257D-04-0.930D-04
 Coeff:     -0.670D-03-0.183D-02-0.204D-02-0.513D-02 0.620D-01 0.262D+00
 Coeff:      0.685D+00
 Gap=     0.153 Goal=   None    Shift=    0.000
 RMSDP=3.96D-08 MaxDP=4.97D-06 DE= 5.46D-12 OVMax= 3.06D-07

 Cycle  14  Pass 1  IDiag  1:
 RMSU=  4.71D-09    CP:  1.10D+00  2.22D+00  9.41D-01  5.39D-01  6.56D-01
                    CP:  8.24D-01  7.94D-01  7.57D-01  7.30D-01  1.06D+00
                    CP:  9.16D-01  9.27D-01  9.67D-01
 E= -844.434283030734     Delta-E=       -0.000000000014 Rises=F Damp=F
 DIIS: error= 9.94D-09 at cycle  14 NSaved=  14.
 NSaved=14 IEnMin=14 EnMin= -844.434283030734     IErMin=14 ErrMin= 9.94D-09
 ErrMax= 9.94D-09  0.00D+00 EMaxC= 1.00D-01 BMatC= 4.56D-14 BMatP= 6.90D-13
 IDIUse=1 WtCom= 1.00D+00 WtEn= 0.00D+00
 Coeff-Com: -0.622D-06 0.870D-06 0.253D-05 0.565D-05 0.145D-04-0.709D-06
 Coeff-Com: -0.103D-03-0.569D-03-0.189D-02-0.517D-02 0.367D-02 0.445D-01
 Coeff-Com:  0.258D+00 0.701D+00
 Coeff:     -0.622D-06 0.870D-06 0.253D-05 0.565D-05 0.145D-04-0.709D-06
 Coeff:     -0.103D-03-0.569D-03-0.189D-02-0.517D-02 0.367D-02 0.445D-01
 Coeff:      0.258D+00 0.701D+00
 Gap=     0.153 Goal=   None    Shift=    0.000
 RMSDP=1.42D-08 MaxDP=1.83D-06 DE=-1.36D-11 OVMax= 6.06D-08

 Cycle  15  Pass 1  IDiag  1:
 RMSU=  1.40D-09    CP:  1.10D+00  2.22D+00  9.41D-01  5.39D-01  6.56D-01
                    CP:  8.24D-01  7.94D-01  7.57D-01  7.30D-01  1.06D+00
                    CP:  9.20D-01  9.38D-01  9.75D-01  8.35D-01
 E= -844.434283030725     Delta-E=        0.000000000009 Rises=F Damp=F
 DIIS: error= 2.36D-09 at cycle  15 NSaved=  15.
 NSaved=15 IEnMin=14 EnMin= -844.434283030734     IErMin=15 ErrMin= 2.36D-09
 ErrMax= 2.36D-09  0.00D+00 EMaxC= 1.00D-01 BMatC= 1.50D-15 BMatP= 4.56D-14
 IDIUse=1 WtCom= 1.00D+00 WtEn= 0.00D+00
 Coeff-Com: -0.125D-06 0.166D-06 0.779D-06 0.199D-05 0.525D-05 0.344D-05
 Coeff-Com: -0.103D-04-0.118D-03-0.495D-03-0.144D-02-0.112D-02 0.426D-02
 Coeff-Com:  0.564D-01 0.231D+00 0.711D+00
 Coeff:     -0.125D-06 0.166D-06 0.779D-06 0.199D-05 0.525D-05 0.344D-05
 Coeff:     -0.103D-04-0.118D-03-0.495D-03-0.144D-02-0.112D-02 0.426D-02
 Coeff:      0.564D-01 0.231D+00 0.711D+00
 Gap=     0.153 Goal=   None    Shift=    0.000
 RMSDP=7.68D-10 MaxDP=6.25D-08 DE= 9.09D-12 OVMax= 1.55D-08

 SCF Done:  E(RB3LYP) =  -844.434283031     A.U. after   15 cycles
            NFock= 15  Conv=0.77D-09     -V/T= 2.0034
 KE= 8.415529860089D+02 PE=-3.272610133771D+03 EE= 9.431988737475D+02
 Leave Link  502 at Mon Dec 22 19:32:02 2025, MaxMem=  6710886400 cpu:             500.8 elap:               6.2
 (Enter /public/software/g16/l601.exe)
 Copying SCF densities to generalized density rwf, IOpCl= 0 IROHF=0.

 **********************************************************************

            Population analysis using the SCF Density.

 **********************************************************************

 Orbital symmetries:
       Occupied  (A) (A) (A) (A) (A) (A) (A) (A) (A) (A) (A) (A)
                 (A) (A) (A) (A) (A) (A) (A) (A) (A) (A) (A) (A)
                 (A) (A) (A) (A) (A) (A) (A) (A) (A) (A) (A) (A)
                 (A) (A) (A) (A) (A) (A) (A)
       Virtual   (A) (A) (A) (A) (A) (A) (A) (A) (A) (A) (A) (A)
                 (A) (A) (A) (A) (A) (A) (A) (A) (A) (A) (A) (A)
                 (A) (A) (A) (A) (A) (A) (A) (A) (A) (A) (A) (A)
                 (A) (A) (A) (A) (A) (A) (A) (A) (A) (A) (A) (A)
                 (A) (A) (A) (A) (A) (A) (A) (A) (A) (A) (A) (A)
                 (A) (A) (A) (A) (A) (A) (A) (A) (A) (A) (A) (A)
                 (A) (A) (A) (A) (A) (A) (A) (A) (A) (A) (A) (A)
                 (A) (A) (A) (A) (A) (A) (A) (A) (A) (A) (A) (A)
                 (A) (A) (A) (A) (A) (A) (A) (A) (A) (A) (A) (A)
                 (A) (A) (A) (A) (A) (A) (A) (A) (A) (A) (A) (A)
                 (A) (A) (A) (A) (A) (A) (A) (A) (A) (A) (A) (A)
                 (A) (A) (A) (A) (A) (A) (A) (A) (A) (A) (A) (A)
                 (A) (A) (A) (A) (A) (A) (A) (A) (A) (A) (A) (A)
                 (A) (A) (A) (A) (A) (A) (A) (A) (A) (A) (A) (A)
                 (A) (A) (A) (A) (A) (A) (A) (A) (A) (A) (A) (A)
                 (A) (A) (A) (A) (A) (A) (A) (A) (A) (A) (A) (A)
                 (A) (A) (A) (A) (A) (A) (A) (A) (A) (A) (A) (A)
                 (A) (A) (A) (A) (A) (A) (A) (A) (A) (A) (A) (A)
                 (A) (A) (A) (A) (A) (A) (A) (A) (A) (A) (A) (A)
                 (A) (A) (A) (A) (A) (A) (A) (A) (A) (A) (A) (A)
                 (A) (A) (A) (A) (A) (A) (A) (A) (A) (A) (A) (A)
                 (A) (A) (A) (A) (A) (A) (A) (A) (A) (A) (A)
 The electronic state is 1-A.
 Alpha  occ. eigenvalues -- -101.38389 -14.41878 -14.41771 -10.30110 -10.24708
 Alpha  occ. eigenvalues --  -10.24576 -10.24575 -10.23634 -10.20041 -10.16936
 Alpha  occ. eigenvalues --   -9.29749  -7.05603  -7.05562  -7.05547  -1.09215
 Alpha  occ. eigenvalues --   -0.97683  -0.83676  -0.80866  -0.75358  -0.73799
 Alpha  occ. eigenvalues --   -0.68433  -0.65381  -0.64172  -0.60764  -0.56917
 Alpha  occ. eigenvalues --   -0.52554  -0.51832  -0.49324  -0.48794  -0.46484
 Alpha  occ. eigenvalues --   -0.45911  -0.44898  -0.43988  -0.43665  -0.43051
 Alpha  occ. eigenvalues --   -0.40639  -0.39095  -0.37271  -0.32523  -0.28245
 Alpha  occ. eigenvalues --   -0.18813  -0.18598  -0.18482
 Alpha virt. eigenvalues --   -0.03177  -0.01952  -0.01585  -0.00380  -0.00329
 Alpha virt. eigenvalues --    0.01707   0.02161   0.02481   0.03538   0.04361
 Alpha virt. eigenvalues --    0.05270   0.05715   0.05763   0.06533   0.07392
 Alpha virt. eigenvalues --    0.08535   0.08868   0.09266   0.09928   0.10180
 Alpha virt. eigenvalues --    0.10982   0.11163   0.12450   0.12752   0.13375
 Alpha virt. eigenvalues --    0.14264   0.14438   0.14629   0.14856   0.15511
 Alpha virt. eigenvalues --    0.16140   0.16514   0.16662   0.16917   0.17435
 Alpha virt. eigenvalues --    0.17838   0.18580   0.18885   0.19014   0.19461
 Alpha virt. eigenvalues --    0.20055   0.20810   0.21685   0.22376   0.23354
 Alpha virt. eigenvalues --    0.23937   0.24287   0.24913   0.26137   0.26248
 Alpha virt. eigenvalues --    0.26650   0.27878   0.28311   0.28564   0.29813
 Alpha virt. eigenvalues --    0.30160   0.31794   0.32297   0.33621   0.35128
 Alpha virt. eigenvalues --    0.36907   0.38277   0.39404   0.40927   0.42396
 Alpha virt. eigenvalues --    0.42892   0.43570   0.45679   0.46450   0.48541
 Alpha virt. eigenvalues --    0.48606   0.49961   0.51354   0.52410   0.54218
 Alpha virt. eigenvalues --    0.54646   0.56494   0.57443   0.58936   0.59043
 Alpha virt. eigenvalues --    0.59640   0.61115   0.61572   0.62739   0.63260
 Alpha virt. eigenvalues --    0.63979   0.64299   0.64942   0.65418   0.66261
 Alpha virt. eigenvalues --    0.66827   0.69570   0.69697   0.70416   0.71356
 Alpha virt. eigenvalues --    0.72450   0.73464   0.74325   0.76634   0.77935
 Alpha virt. eigenvalues --    0.78938   0.82144   0.84358   0.85598   0.87124
 Alpha virt. eigenvalues --    0.91065   0.93077   0.94133   0.97130   0.98250
 Alpha virt. eigenvalues --    0.99409   1.01761   1.02558   1.03425   1.04225
 Alpha virt. eigenvalues --    1.04703   1.05232   1.07954   1.08545   1.11169
 Alpha virt. eigenvalues --    1.11457   1.13999   1.15575   1.20532   1.22907
 Alpha virt. eigenvalues --    1.25249   1.28879   1.29793   1.31677   1.36352
 Alpha virt. eigenvalues --    1.38770   1.42237   1.43109   1.43420   1.44376
 Alpha virt. eigenvalues --    1.46895   1.48073   1.48709   1.51631   1.53372
 Alpha virt. eigenvalues --    1.53698   1.54324   1.55051   1.56585   1.57203
 Alpha virt. eigenvalues --    1.59060   1.60475   1.61192   1.62234   1.63469
 Alpha virt. eigenvalues --    1.63644   1.64231   1.66628   1.69140   1.69776
 Alpha virt. eigenvalues --    1.72608   1.73329   1.74480   1.76320   1.76456
 Alpha virt. eigenvalues --    1.79869   1.81374   1.82365   1.84710   1.89524
 Alpha virt. eigenvalues --    1.94089   1.94944   1.98613   2.00323   2.01627
 Alpha virt. eigenvalues --    2.02955   2.04672   2.07659   2.08970   2.11353
 Alpha virt. eigenvalues --    2.13975   2.14385   2.17039   2.18924   2.24798
 Alpha virt. eigenvalues --    2.28762   2.31078   2.33126   2.36919   2.40762
 Alpha virt. eigenvalues --    2.41801   2.42383   2.43573   2.45043   2.45666
 Alpha virt. eigenvalues --    2.46273   2.47860   2.48466   2.49356   2.49897
 Alpha virt. eigenvalues --    2.52656   2.52887   2.54332   2.55671   2.56694
 Alpha virt. eigenvalues --    2.58365   2.60079   2.61752   2.62813   2.63292
 Alpha virt. eigenvalues --    2.64266   2.65689   2.66712   2.70313   2.71979
 Alpha virt. eigenvalues --    2.73227   2.74668   2.77498   2.79362   2.80999
 Alpha virt. eigenvalues --    2.84085   2.85831   2.89865   2.90730   2.95825
 Alpha virt. eigenvalues --    2.97639   2.99303   3.01625   3.06749   3.17172
 Alpha virt. eigenvalues --    3.22775   3.29206   3.39174   3.56712   3.61018
 Alpha virt. eigenvalues --    3.63074   3.68219   3.70809   3.75920   3.78402
 Alpha virt. eigenvalues --    3.81126   3.81584   3.83198   3.84588   3.88098
 Alpha virt. eigenvalues --    3.93462   3.96892   4.08315   4.10206   4.20767
 Alpha virt. eigenvalues --    4.72384   4.92376   4.94118   5.23651   9.87019
 Alpha virt. eigenvalues --   23.74422  23.79258  23.84888  23.90732  23.96940
 Alpha virt. eigenvalues --   23.98725  24.16792  26.03851  26.13260  26.17782
 Alpha virt. eigenvalues --   35.45748  35.59416 215.85598
          Condensed to atoms (all electrons):
               1          2          3          4          5          6
     1  C    5.429374   0.469296   0.283693  -0.048641  -0.045271   0.110486
     2  H    0.469296   0.493645  -0.065991  -0.002880   0.014073  -0.068163
     3  C    0.283693  -0.065991   5.366301   0.454210  -0.305058   0.121589
     4  H   -0.048641  -0.002880   0.454210   0.492470   0.007770   0.027308
     5  C   -0.045271   0.014073  -0.305058   0.007770   9.661395   0.156251
     6  N    0.110486  -0.068163   0.121589   0.027308   0.156251   6.741151
     7  N    0.038660   0.030317   0.261063  -0.063817   0.031045  -0.190191
     8  C   -0.010843  -0.027676   0.097893   0.002209  -0.168157   0.219798
     9  H    0.018457   0.000240  -0.006237   0.000015  -0.037163  -0.052493
    10  H   -0.029381  -0.000329   0.008828   0.000016   0.049712  -0.053945
    11  C    0.022813   0.001516  -0.100816  -0.017503  -0.254769   0.002344
    12  H    0.023313   0.000033  -0.026136   0.000848   0.068335  -0.011727
    13  H   -0.004615   0.000014   0.009704   0.000283  -0.072776   0.003068
    14  H    0.000400   0.000005  -0.005054  -0.000205  -0.024882   0.006782
    15  C   -0.049120   0.010091  -0.022115  -0.000434   0.097023  -0.120675
    16  H   -0.010970  -0.000158   0.003648   0.000006   0.003592   0.004570
    17  H    0.001498  -0.000171  -0.000975  -0.000001   0.005923   0.024631
    18  H    0.027610   0.000756  -0.000051  -0.000007  -0.029729  -0.039149
    19  Cl   0.054220  -0.000633   0.056477  -0.000126   0.162295   0.008913
    20  C   -0.166076   0.000277  -0.101310  -0.000174  -3.092947  -0.034316
    21  H    0.003463   0.000011  -0.001927   0.000015   0.065564  -0.032057
    22  H    0.002541  -0.000005   0.007679   0.000007  -0.009991   0.006735
    23  H   -0.002138   0.000012   0.003712   0.000006  -0.042027   0.022656
               7          8          9         10         11         12
     1  C    0.038660  -0.010843   0.018457  -0.029381   0.022813   0.023313
     2  H    0.030317  -0.027676   0.000240  -0.000329   0.001516   0.000033
     3  C    0.261063   0.097893  -0.006237   0.008828  -0.100816  -0.026136
     4  H   -0.063817   0.002209   0.000015   0.000016  -0.017503   0.000848
     5  C    0.031045  -0.168157  -0.037163   0.049712  -0.254769   0.068335
     6  N   -0.190191   0.219798  -0.052493  -0.053945   0.002344  -0.011727
     7  N    6.584962  -0.088116   0.011560  -0.007124   0.267110  -0.070091
     8  C   -0.088116   5.847546   0.448010   0.413846  -0.024353  -0.001382
     9  H    0.011560   0.448010   0.545956  -0.032261   0.001211   0.000003
    10  H   -0.007124   0.413846  -0.032261   0.543168  -0.000399  -0.000003
    11  C    0.267110  -0.024353   0.001211  -0.000399   5.114660   0.386012
    12  H   -0.070091  -0.001382   0.000003  -0.000003   0.386012   0.533328
    13  H   -0.017309   0.001460  -0.000039  -0.000008   0.406114  -0.020765
    14  H   -0.019836   0.000488   0.000013   0.000006   0.427328  -0.017734
    15  C    0.039340  -0.231897  -0.033653  -0.048848   0.006838   0.000451
    16  H   -0.002832  -0.016669  -0.005327   0.004939  -0.000172  -0.000003
    17  H   -0.000122  -0.075834  -0.006468  -0.003069   0.000054  -0.000000
    18  H    0.001676   0.051546   0.007684  -0.007733  -0.000251   0.000000
    19  Cl   0.014561   0.091594   0.000547  -0.001717   0.003812  -0.002296
    20  C    0.095139  -0.349493  -0.012789   0.002281   0.047947  -0.007597
    21  H    0.009260  -0.034964   0.011711   0.000075   0.002278  -0.000009
    22  H    0.005147   0.009500  -0.000180  -0.000205   0.000812  -0.000141
    23  H   -0.029705   0.014682  -0.000179  -0.000072  -0.001684   0.000093
              13         14         15         16         17         18
     1  C   -0.004615   0.000400  -0.049120  -0.010970   0.001498   0.027610
     2  H    0.000014   0.000005   0.010091  -0.000158  -0.000171   0.000756
     3  C    0.009704  -0.005054  -0.022115   0.003648  -0.000975  -0.000051
     4  H    0.000283  -0.000205  -0.000434   0.000006  -0.000001  -0.000007
     5  C   -0.072776  -0.024882   0.097023   0.003592   0.005923  -0.029729
     6  N    0.003068   0.006782  -0.120675   0.004570   0.024631  -0.039149
     7  N   -0.017309  -0.019836   0.039340  -0.002832  -0.000122   0.001676
     8  C    0.001460   0.000488  -0.231897  -0.016669  -0.075834   0.051546
     9  H   -0.000039   0.000013  -0.033653  -0.005327  -0.006468   0.007684
    10  H   -0.000008   0.000006  -0.048848   0.004939  -0.003069  -0.007733
    11  C    0.406114   0.427328   0.006838  -0.000172   0.000054  -0.000251
    12  H   -0.020765  -0.017734   0.000451  -0.000003  -0.000000   0.000000
    13  H    0.534993  -0.028996  -0.000364   0.000003  -0.000000  -0.000001
    14  H   -0.028996   0.400109  -0.000349   0.000011   0.000001   0.000001
    15  C   -0.000364  -0.000349   5.654533   0.398826   0.413196   0.360288
    16  H    0.000003   0.000011   0.398826   0.413622  -0.019216  -0.019269
    17  H   -0.000000   0.000001   0.413196  -0.019216   0.539449  -0.029548
    18  H   -0.000001   0.000001   0.360288  -0.019269  -0.029548   0.565143
    19  Cl   0.000591   0.013954  -0.084396   0.011281   0.000386   0.002852
    20  C    0.031779  -0.004884  -0.003149   0.002621   0.007097  -0.015950
    21  H   -0.000085  -0.000213   0.017997  -0.000163   0.000029   0.000023
    22  H    0.000331   0.000621  -0.005249  -0.000106  -0.000043   0.000084
    23  H    0.007803  -0.000705  -0.004592  -0.000012  -0.000003   0.000006
              19         20         21         22         23
     1  C    0.054220  -0.166076   0.003463   0.002541  -0.002138
     2  H   -0.000633   0.000277   0.000011  -0.000005   0.000012
     3  C    0.056477  -0.101310  -0.001927   0.007679   0.003712
     4  H   -0.000126  -0.000174   0.000015   0.000007   0.000006
     5  C    0.162295  -3.092947   0.065564  -0.009991  -0.042027
     6  N    0.008913  -0.034316  -0.032057   0.006735   0.022656
     7  N    0.014561   0.095139   0.009260   0.005147  -0.029705
     8  C    0.091594  -0.349493  -0.034964   0.009500   0.014682
     9  H    0.000547  -0.012789   0.011711  -0.000180  -0.000179
    10  H   -0.001717   0.002281   0.000075  -0.000205  -0.000072
    11  C    0.003812   0.047947   0.002278   0.000812  -0.001684
    12  H   -0.002296  -0.007597  -0.000009  -0.000141   0.000093
    13  H    0.000591   0.031779  -0.000085   0.000331   0.007803
    14  H    0.013954  -0.004884  -0.000213   0.000621  -0.000705
    15  C   -0.084396  -0.003149   0.017997  -0.005249  -0.004592
    16  H    0.011281   0.002621  -0.000163  -0.000106  -0.000012
    17  H    0.000386   0.007097   0.000029  -0.000043  -0.000003
    18  H    0.002852  -0.015950   0.000023   0.000084   0.000006
    19  Cl  17.745520  -0.313881  -0.000962   0.015296   0.000512
    20  C   -0.313881   9.240460   0.329765   0.346618   0.396782
    21  H   -0.000962   0.329765   0.541894  -0.024893  -0.029906
    22  H    0.015296   0.346618  -0.024893   0.397428  -0.013251
    23  H    0.000512   0.396782  -0.029906  -0.013251   0.543519
 Mulliken charges:
               1
     1  C   -0.118769
     2  H    0.145721
     3  C   -0.039128
     4  H    0.148625
     5  C   -0.240210
     6  N    0.146433
     7  N    0.099304
     8  C   -0.169187
     9  H    0.141382
    10  H    0.162221
    11  C   -0.290904
    12  H    0.145467
    13  H    0.148814
    14  H    0.253140
    15  C   -0.393742
    16  H    0.231777
    17  H    0.143186
    18  H    0.124020
    19  Cl  -0.778801
    20  C   -0.398200
    21  H    0.143095
    22  H    0.261265
    23  H    0.134492
 Sum of Mulliken charges =  -0.00000
 Mulliken charges with hydrogens summed into heavy atoms:
               1
     1  C    0.026952
     3  C    0.109497
     5  C   -0.240210
     6  N    0.146433
     7  N    0.099304
     8  C    0.134416
    11  C    0.256517
    15  C    0.105241
    19  Cl  -0.778801
    20  C    0.140652
 Electronic spatial extent (au):  <R**2>=           1781.0973
 Charge=              0.0000 electrons
 Dipole moment (field-independent basis, Debye):
    X=             -0.5641    Y=             -9.7914    Z=              3.3171  Tot=             10.3533
 Quadrupole moment (field-independent basis, Debye-Ang):
   XX=            -54.4941   YY=            -89.3937   ZZ=            -65.7457
   XY=              0.5244   XZ=              0.7290   YZ=             10.9399
 Traceless Quadrupole moment (field-independent basis, Debye-Ang):
   XX=             15.3837   YY=            -19.5159   ZZ=              4.1321
   XY=              0.5244   XZ=              0.7290   YZ=             10.9399
 Octapole moment (field-independent basis, Debye-Ang**2):
  XXX=            -16.4090  YYY=            -60.0941  ZZZ=              9.9312  XYY=              6.0600
  XXY=            -10.6744  XXZ=              0.6610  XZZ=             -2.7790  YZZ=            -14.9880
  YYZ=              7.8517  XYZ=             -3.7822
 Hexadecapole moment (field-independent basis, Debye-Ang**3):
 XXXX=          -1024.3609 YYYY=          -1003.7904 ZZZZ=           -456.1247 XXXY=              7.5062
 XXXZ=             13.2422 YYYX=              0.1026 YYYZ=             54.0483 ZZZX=              1.9310
 ZZZY=             31.8943 XXYY=           -324.2513 XXZZ=           -247.6020 YYZZ=           -220.9303
 XXYZ=             14.1340 YYXZ=              0.8024 ZZXY=              3.5335
 N-N= 6.434239909839D+02 E-N=-3.272610133831D+03  KE= 8.415529860089D+02
 No NMR shielding tensors so no spin-rotation constants.
 Leave Link  601 at Mon Dec 22 19:32:03 2025, MaxMem=  6710886400 cpu:               8.5 elap:               0.2
 (Enter /public/software/g16/l701.exe)
 ... and contract with generalized density number  0.
 Compute integral first derivatives.
 R6Disp: Adding Grimme-D3 dispersion energy 1st derivatives to the gradient.
 Leave Link  701 at Mon Dec 22 19:32:03 2025, MaxMem=  6710886400 cpu:               9.6 elap:               0.2
 (Enter /public/software/g16/l702.exe)
 L702 exits ... SP integral derivatives will be done elsewhere.
 Leave Link  702 at Mon Dec 22 19:32:03 2025, MaxMem=  6710886400 cpu:               0.9 elap:               0.0
 (Enter /public/software/g16/l703.exe)
 Integral derivatives from FoFJK, PRISM(SPDF).
 Compute integral first derivatives, UseDBF=F ICtDFT=           0.
 Calling FoFJK, ICntrl=      2127 FMM=F ISym2X=0 I1Cent= 0 IOpClX= 0 NMat=1 NMatS=1 NMatT=0.
 FoFJK:  IHMeth= 1 ICntrl=    2127 DoSepK=F KAlg= 0 I1Cent=           0 FoldK=F
 IRaf=         0 NMat=       1 IRICut=       1 DoRegI=T DoRafI=F ISym2E= 0 IDoP0=0 IntGTp=1.
 FoFCou: FMM=F IPFlag=           0 FMFlag=      100000 FMFlg1=         800
         NFxFlg=           0 DoJE=F BraDBF=F KetDBF=F FulRan=T
         wScrn=  0.000000 ICntrl=      2127 IOpCl=  0 I1Cent=           0 NGrid=           0
         NMat0=    1 NMatS0=      1 NMatT0=    0 NMatD0=    1 NMtDS0=    0 NMtDT0=    0
 Symmetry not used in FoFCou.
 Leave Link  703 at Mon Dec 22 19:32:04 2025, MaxMem=  6710886400 cpu:              97.4 elap:               1.2
 (Enter /public/software/g16/l716.exe)
 Dipole        =-2.21936041D-01-3.85221536D+00 1.30503506D+00
 ***** Axes restored to original set *****
 -------------------------------------------------------------------
 Center     Atomic                   Forces (Hartrees/Bohr)
 Number     Number              X              Y              Z
 -------------------------------------------------------------------
      1        6           0.000045536   -0.000692573    0.001368046
      2        1          -0.000050300    0.000192311   -0.000132888
      3        6          -0.000550417   -0.000754190    0.000556257
      4        1           0.000162595    0.000274707   -0.000192995
      5        6          -0.000762891    0.018830146    0.029116409
      6        7          -0.002919686    0.002473334   -0.004746987
      7        7           0.004911415    0.003221692   -0.004320994
      8        6           0.002214598   -0.000788625   -0.000536707
      9        1           0.001915877   -0.001374371   -0.001426247
     10        1          -0.000398130   -0.000188931    0.000059794
     11        6          -0.000733234    0.000308899   -0.000394779
     12        1           0.000310669    0.000555700   -0.000196958
     13        1          -0.000975929   -0.001057527   -0.000726522
     14        1           0.000136134    0.000142260   -0.001557964
     15        6           0.000461641    0.000184254    0.000832810
     16        1          -0.000734973    0.000079308   -0.001650200
     17        1           0.000196571   -0.000366706    0.000348937
     18        1          -0.000460695    0.000570205    0.000048136
     19       17          -0.002177852   -0.004924163    0.002525874
     20        6           0.000749879   -0.024310173   -0.027810101
     21        1           0.007932310   -0.004993111    0.010857649
     22        1           0.001978945    0.012819252   -0.008226129
     23        1          -0.011252063   -0.000201698    0.006205559
 -------------------------------------------------------------------
 Cartesian Forces:  Max     0.029116409 RMS     0.006946051
 Leave Link  716 at Mon Dec 22 19:32:04 2025, MaxMem=  6710886400 cpu:               0.9 elap:               0.0
 (Enter /public/software/g16/l103.exe)

 GradGradGradGradGradGradGradGradGradGradGradGradGradGradGradGradGradGrad
 Berny optimization.
 FormGI is forming the generalized inverse of G from B-inverse, IUseBI=4.
 Internal  Forces:  Max     0.023968755 RMS     0.003861965
 Search for a local minimum.
 Step number   1 out of a maximum of  131
 All quantities printed in internal units (Hartrees-Bohrs-Radians)
 RMS Force = .38620D-02 SwitMx=.10000D-02 MixMth= 1
 Mixed Optimization -- RFO/linear search
 Second derivative matrix not updated -- first step.
 ITU=  0
     Eigenvalues ---    0.00324   0.00426   0.00825   0.00880   0.01308
     Eigenvalues ---    0.01490   0.01657   0.01868   0.02140   0.02161
     Eigenvalues ---    0.02222   0.02289   0.02415   0.03750   0.04592
     Eigenvalues ---    0.05001   0.05267   0.05672   0.06524   0.07687
     Eigenvalues ---    0.07782   0.07914   0.09457   0.10759   0.11017
     Eigenvalues ---    0.11106   0.11433   0.13068   0.15999   0.15999
     Eigenvalues ---    0.16000   0.16000   0.16000   0.16283   0.17322
     Eigenvalues ---    0.19768   0.22407   0.22756   0.23140   0.23510
     Eigenvalues ---    0.24469   0.27991   0.29179   0.33524   0.34435
     Eigenvalues ---    0.34453   0.34453   0.34479   0.34756   0.34825
     Eigenvalues ---    0.34888   0.34935   0.36523   0.36555   0.36691
     Eigenvalues ---    0.36796   0.37230   0.37230   0.42418   0.45753
     Eigenvalues ---    0.49240   0.54381   0.55277
 RFO step:  Lambda=-1.13263948D-02 EMin= 3.23727968D-03
 Linear search not attempted -- first point.
 Iteration  1 RMS(Cart)=  0.11890594 RMS(Int)=  0.00710331
 Iteration  2 RMS(Cart)=  0.00728977 RMS(Int)=  0.00049258
 Iteration  3 RMS(Cart)=  0.00003779 RMS(Int)=  0.00049208
 Iteration  4 RMS(Cart)=  0.00000005 RMS(Int)=  0.00049208
 ITry= 1 IFail=0 DXMaxC= 7.60D-01 DCOld= 1.00D+10 DXMaxT= 3.00D-01 DXLimC= 3.00D+00 Rises=F
 Variable       Old X    -DE/DX   Delta X   Delta X   Delta X     New X
                                 (Linear)    (Quad)   (Total)
    R1        2.03223  -0.00007   0.00000  -0.00019  -0.00019   2.03204
    R2        2.56255  -0.00277   0.00000  -0.00645  -0.00652   2.55603
    R3        2.62265  -0.00158   0.00000  -0.00285  -0.00281   2.61984
    R4        2.03272  -0.00011   0.00000  -0.00028  -0.00028   2.03244
    R5        2.62010  -0.00076   0.00000  -0.00284  -0.00293   2.61717
    R6        2.53152   0.00502   0.00000   0.00880   0.00876   2.54028
    R7        2.53631   0.00204   0.00000   0.00407   0.00409   2.54040
    R8        2.91018  -0.02397   0.00000  -0.08597  -0.08604   2.82414
    R9        2.77983   0.00027   0.00000   0.00231   0.00229   2.78211
   R10        2.76154   0.00100   0.00000   0.00262   0.00262   2.76417
   R11        2.06073  -0.00204   0.00000  -0.00568  -0.00568   2.05504
   R12        2.06573  -0.00002   0.00000  -0.00005  -0.00005   2.06568
   R13        2.88598  -0.00046   0.00000  -0.00266  -0.00243   2.88355
   R14        2.05781  -0.00044   0.00000  -0.00122  -0.00122   2.05659
   R15        2.05960  -0.00055   0.00000  -0.00152  -0.00152   2.05808
   R16        2.06602   0.00082   0.00000   0.00231   0.00231   2.06833
   R17        2.06331  -0.00042   0.00000   0.00019   0.00048   2.06379
   R18        2.06529   0.00019   0.00000   0.00054   0.00054   2.06582
   R19        2.06572  -0.00040   0.00000  -0.00112  -0.00112   2.06459
   R20        5.06136   0.00003   0.00000   0.00595   0.00611   5.06748
   R21        5.08442  -0.00412   0.00000  -0.09953  -0.09969   4.98473
   R22        2.02201   0.01411   0.00000   0.03679   0.03679   2.05880
   R23        2.02201   0.01113   0.00000   0.02773   0.02742   2.04942
   R24        2.02201   0.01282   0.00000   0.03343   0.03343   2.05544
    A1        2.28389  -0.00006   0.00000  -0.00044  -0.00055   2.28334
    A2        2.12952   0.00000   0.00000  -0.00008  -0.00019   2.12933
    A3        1.86974   0.00007   0.00000   0.00085   0.00025   1.86999
    A4        2.28373  -0.00022   0.00000   0.00036   0.00044   2.28417
    A5        1.87305   0.00030   0.00000  -0.00128  -0.00186   1.87119
    A6        2.12636  -0.00007   0.00000   0.00118   0.00127   2.12762
    A7        1.89504  -0.00559   0.00000  -0.01325  -0.01513   1.87991
    A8        2.18960   0.00434   0.00000   0.02000   0.02012   2.20971
    A9        2.18903   0.00139   0.00000   0.00459   0.00295   2.19199
   A10        1.89179   0.00262   0.00000   0.01035   0.00972   1.90151
   A11        2.19440  -0.00605   0.00000  -0.02836  -0.02882   2.16558
   A12        2.17551   0.00345   0.00000   0.01548   0.01646   2.19197
   A13        1.88931   0.00291   0.00000   0.01292   0.01257   1.90188
   A14        2.19890  -0.00529   0.00000  -0.02311  -0.02296   2.17594
   A15        2.14885   0.00239   0.00000   0.01025   0.01049   2.15934
   A16        1.85932   0.00028   0.00000   0.00680   0.00714   1.86645
   A17        1.87825   0.00385   0.00000   0.01613   0.01619   1.89444
   A18        1.95163  -0.00530   0.00000  -0.03184  -0.03261   1.91902
   A19        1.88353  -0.00100   0.00000  -0.00111  -0.00131   1.88223
   A20        1.93070   0.00292   0.00000   0.00169   0.00170   1.93239
   A21        1.95620  -0.00058   0.00000   0.00941   0.00984   1.96604
   A22        1.89934  -0.00036   0.00000  -0.00461  -0.00462   1.89472
   A23        1.91341   0.00135   0.00000   0.01000   0.00999   1.92340
   A24        1.88237  -0.00065   0.00000  -0.00345  -0.00348   1.87889
   A25        1.90720  -0.00064   0.00000  -0.00445  -0.00445   1.90275
   A26        1.94570  -0.00051   0.00000  -0.00742  -0.00746   1.93823
   A27        1.91548   0.00086   0.00000   0.01017   0.01014   1.92562
   A28        1.91555   0.00174   0.00000  -0.02357  -0.02388   1.89168
   A29        1.90713  -0.00113   0.00000   0.01212   0.01249   1.91961
   A30        1.93846   0.00016   0.00000  -0.00349  -0.00414   1.93431
   A31        1.91343   0.00278   0.00000   0.02928   0.02919   1.94262
   A32        1.90221  -0.00385   0.00000  -0.01871  -0.01880   1.88341
   A33        1.88677   0.00034   0.00000   0.00541   0.00547   1.89223
   A34        2.56383  -0.00687   0.00000  -0.02815  -0.02772   2.53612
   A35        1.35607   0.00424   0.00000   0.00157  -0.00071   1.35536
   A36        1.91063   0.00067   0.00000   0.02276   0.02401   1.93464
   A37        1.91063  -0.00549   0.00000  -0.08413  -0.08511   1.82552
   A38        1.91063   0.00224   0.00000   0.01400   0.01291   1.92354
   A39        1.91063   0.00474   0.00000   0.04575   0.04601   1.95665
   A40        1.91063  -0.00157   0.00000  -0.00036  -0.00092   1.90971
   A41        1.91063  -0.00059   0.00000   0.00198   0.00185   1.91248
   A42        2.08509  -0.00826   0.00000  -0.05890  -0.05989   2.02520
    D1       -0.00603   0.00039   0.00000   0.00458   0.00462  -0.00140
    D2        3.12570   0.00078   0.00000   0.03605   0.03622  -3.12127
    D3       -3.13870  -0.00115   0.00000  -0.03881  -0.03905   3.10543
    D4       -0.00698  -0.00077   0.00000  -0.00734  -0.00746  -0.01443
    D5        3.09412   0.00083   0.00000   0.01773   0.01789   3.11202
    D6        0.16635   0.00010   0.00000   0.02725   0.02733   0.19368
    D7       -0.05543   0.00221   0.00000   0.05643   0.05686   0.00143
    D8       -2.98320   0.00148   0.00000   0.06595   0.06629  -2.91691
    D9        0.06681  -0.00084   0.00000  -0.04391  -0.04421   0.02260
   D10        2.89246  -0.00009   0.00000  -0.04062  -0.04081   2.85164
   D11       -3.08357  -0.00050   0.00000  -0.01590  -0.01607  -3.09964
   D12       -0.25792   0.00025   0.00000  -0.01261  -0.01268  -0.27060
   D13        0.09798  -0.00314   0.00000  -0.08570  -0.08539   0.01259
   D14        3.02863  -0.00386   0.00000  -0.10174  -0.10191   2.92672
   D15        3.09799  -0.00210   0.00000  -0.00193  -0.00162   3.09637
   D16       -0.25455  -0.00283   0.00000  -0.01798  -0.01813  -0.27268
   D17       -0.10224   0.00266   0.00000   0.08087   0.08056  -0.02168
   D18       -2.93895   0.00364   0.00000   0.08509   0.08460  -2.85435
   D19       -3.10231   0.00132   0.00000  -0.00443  -0.00390  -3.10620
   D20        0.34417   0.00230   0.00000  -0.00021   0.00014   0.34431
   D21       -0.55150   0.00021   0.00000   0.02253   0.02221  -0.52929
   D22        1.54289   0.00306   0.00000   0.04098   0.03996   1.58285
   D23       -2.64590   0.00035   0.00000   0.00045  -0.00020  -2.64610
   D24        2.42520   0.00094   0.00000   0.11903   0.11936   2.54456
   D25       -1.76359   0.00380   0.00000   0.13748   0.13711  -1.62648
   D26        0.33081   0.00108   0.00000   0.09696   0.09695   0.42776
   D27       -3.05695  -0.00225   0.00000  -0.03249  -0.03259  -3.08954
   D28       -1.04060  -0.00142   0.00000  -0.02266  -0.02252  -1.06311
   D29        1.11496  -0.00291   0.00000  -0.02027  -0.02033   1.09463
   D30        0.33192  -0.00272   0.00000  -0.01959  -0.01942   0.31250
   D31        2.34827  -0.00188   0.00000  -0.00976  -0.00935   2.33892
   D32       -1.77936  -0.00337   0.00000  -0.00737  -0.00716  -1.78652
   D33        0.45696  -0.00085   0.00000  -0.01468  -0.01468   0.44228
   D34        2.54198  -0.00105   0.00000  -0.01695  -0.01698   2.52500
   D35       -1.65628   0.00037   0.00000  -0.00102  -0.00104  -1.65732
   D36       -3.04469  -0.00021   0.00000  -0.01181  -0.01177  -3.05646
   D37       -0.95967  -0.00041   0.00000  -0.01407  -0.01407  -0.97375
   D38        1.12525   0.00101   0.00000   0.00186   0.00187   1.12712
   D39        0.99314  -0.00525   0.00000  -0.09603  -0.09544   0.89770
   D40        3.09182  -0.00147   0.00000  -0.06707  -0.06676   3.02506
   D41       -1.11144  -0.00168   0.00000  -0.05482  -0.05456  -1.16600
   D42       -1.07618  -0.00410   0.00000  -0.08510  -0.08475  -1.16092
   D43        1.02250  -0.00033   0.00000  -0.05614  -0.05607   0.96643
   D44        3.10242  -0.00053   0.00000  -0.04389  -0.04386   3.05856
   D45        3.10404  -0.00446   0.00000  -0.09121  -0.09098   3.01306
   D46       -1.08047  -0.00069   0.00000  -0.06225  -0.06230  -1.14277
   D47        0.99946  -0.00089   0.00000  -0.05001  -0.05010   0.94936
   D48       -0.71580  -0.00055   0.00000   0.01681   0.01710  -0.69870
   D49       -2.81064  -0.00196   0.00000  -0.00167  -0.00126  -2.81190
   D50        1.41060  -0.00172   0.00000  -0.01421  -0.01352   1.39708
   D51        1.21228   0.00229   0.00000   0.07038   0.07083   1.28311
   D52       -1.41162  -0.00387   0.00000  -0.08413  -0.08383  -1.49545
   D53        0.21264   0.00129   0.00000   0.03511   0.03490   0.24754
   D54        2.30703   0.00165   0.00000   0.03948   0.03801   2.34504
   D55       -1.88176   0.00227   0.00000   0.06827   0.06751  -1.81425
         Item               Value     Threshold  Converged?
 Maximum Force            0.023969     0.000450     NO 
 RMS     Force            0.003862     0.000300     NO 
 Maximum Displacement     0.759945     0.001800     NO 
 RMS     Displacement     0.121075     0.001200     NO 
 Predicted change in Energy=-6.747464D-03
 Lowest energy point so far.  Saving SCF results.
 GradGradGradGradGradGradGradGradGradGradGradGradGradGradGradGradGradGrad

 Leave Link  103 at Mon Dec 22 19:32:04 2025, MaxMem=  6710886400 cpu:               2.0 elap:               0.0
 (Enter /public/software/g16/l202.exe)
                          Input orientation:                          
 ---------------------------------------------------------------------
 Center     Atomic      Atomic             Coordinates (Angstroms)
 Number     Number       Type             X           Y           Z
 ---------------------------------------------------------------------
      1          6           0        0.354805   -1.691155   -0.597389
      2          1           0        1.068812   -2.272107   -1.153246
      3          6           0       -0.982899   -1.556678   -0.745605
      4          1           0       -1.660055   -1.996617   -1.455997
      5          6           0       -0.353624   -0.239775    0.929358
      6          7           0        0.735166   -0.864699    0.448694
      7          7           0       -1.414738   -0.664456    0.221625
      8          6           0        2.131121   -0.511575    0.755413
      9          1           0        2.112994    0.100557    1.654071
     10          1           0        2.679133   -1.428865    0.985960
     11          6           0       -2.705965    0.022549    0.202890
     12          1           0       -3.408120   -0.575391   -0.374906
     13          1           0       -3.086608    0.135567    1.217017
     14          1           0       -2.553243    1.003708   -0.257502
     15          6           0        2.741385    0.259972   -0.411071
     16          1           0        2.072339    1.084568   -0.666268
     17          1           0        3.735281    0.624674   -0.138634
     18          1           0        2.837744   -0.379404   -1.291723
     19         17           0       -0.483755    1.838800   -0.963700
     20          6           0       -0.402439    0.697946    2.091997
     21          1           0        0.362370    0.445855    2.825797
     22          1           0       -0.244329    1.679337    1.658371
     23          1           0       -1.381965    0.661305    2.563439
 ---------------------------------------------------------------------
                    Distance matrix (angstroms):
                    1          2          3          4          5
     1  C    0.000000
     2  H    1.075309   0.000000
     3  C    1.352592   2.210776   0.000000
     4  H    2.211374   2.759397   1.075520   0.000000
     5  C    2.222460   3.238972   2.221648   3.237773   0.000000
     6  N    1.386360   2.158317   2.203845   3.262847   1.344258
     7  N    2.203673   3.262336   1.384947   2.156212   1.344323
     8  C    2.525230   2.805523   3.611429   4.633434   2.505612
     9  H    3.372022   3.821110   4.253166   5.320391   2.593306
    10  H    2.824587   2.807204   4.052793   5.011392   3.258028
    11  C    3.597990   4.620984   2.522410   2.814758   2.475900
    12  H    3.931162   4.850524   2.642355   2.498874   3.338217
    13  H    4.297942   5.355611   3.337839   3.704898   2.773596
    14  H    3.979265   4.965139   3.042992   3.352033   2.791633
    15  C    3.088264   3.124060   4.157214   5.055368   3.409630
    16  H    3.264860   3.537158   4.039426   4.903891   3.191427
    17  H    4.123244   4.065813   5.233348   6.141357   4.313586
    18  H    2.892711   2.594344   4.035039   4.782527   3.890697
    19  Cl   3.646635   4.398404   3.438893   4.041840   2.814441
    20  C    3.676142   4.638686   3.670456   4.629313   1.494468
    21  H    4.035477   4.870233   4.309849   5.328193   2.139910
    22  H    4.099711   5.024285   4.098338   5.021574   2.055820
    23  H    4.305958   5.331507   4.003558   4.826775   2.130646
[...]
      6          7           0        0.810927   -0.910872    0.198364
      7          7           0       -1.352972   -0.829256    0.037251
      8          6           0        2.199304   -0.593046    0.566088
      9          1           0        2.195242   -0.262976    1.604612
     10          1           0        2.760009   -1.530289    0.529383
     11          6           0       -2.705517   -0.283816    0.135153
     12          1           0       -3.357724   -0.861401   -0.517408
     13          1           0       -3.070250   -0.360223    1.159151
     14          1           0       -2.662157    0.760563   -0.190115
     15          6           0        2.803293    0.468713   -0.351667
     16          1           0        2.170593    1.358751   -0.373755
     17          1           0        3.805471    0.725685    0.001198
     18          1           0        2.883037    0.095129   -1.375235
     19         17           0       -0.394202    2.104837   -0.748528
     20          6           0       -0.353141    0.464996    1.962197
     21          1           0       -0.281746   -0.178063    2.848244
     22          1           0        0.451585    1.196866    1.961533
     23          1           0       -1.279452    1.032487    1.989866
 ---------------------------------------------------------------------
 Rotational constants (GHZ):           1.2703750           1.0176176           0.7900321
 Leave Link  202 at Mon Dec 22 19:35:47 2025, MaxMem=  6710886400 cpu:               1.0 elap:               0.0
 (Enter /public/software/g16/l601.exe)
 Copying SCF densities to generalized density rwf, IOpCl= 0 IROHF=0.

 **********************************************************************

            Population analysis using the SCF Density.

 **********************************************************************

 Orbital symmetries:
       Occupied  (A) (A) (A) (A) (A) (A) (A) (A) (A) (A) (A) (A)
                 (A) (A) (A) (A) (A) (A) (A) (A) (A) (A) (A) (A)
                 (A) (A) (A) (A) (A) (A) (A) (A) (A) (A) (A) (A)
                 (A) (A) (A) (A) (A) (A) (A)
       Virtual   (A) (A) (A) (A) (A) (A) (A) (A) (A) (A) (A) (A)
                 (A) (A) (A) (A) (A) (A) (A) (A) (A) (A) (A) (A)
                 (A) (A) (A) (A) (A) (A) (A) (A) (A) (A) (A) (A)
                 (A) (A) (A) (A) (A) (A) (A) (A) (A) (A) (A) (A)
                 (A) (A) (A) (A) (A) (A) (A) (A) (A) (A) (A) (A)
                 (A) (A) (A) (A) (A) (A) (A) (A) (A) (A) (A) (A)
                 (A) (A) (A) (A) (A) (A) (A) (A) (A) (A) (A) (A)
                 (A) (A) (A) (A) (A) (A) (A) (A) (A) (A) (A) (A)
                 (A) (A) (A) (A) (A) (A) (A) (A) (A) (A) (A) (A)
                 (A) (A) (A) (A) (A) (A) (A) (A) (A) (A) (A) (A)
                 (A) (A) (A) (A) (A) (A) (A) (A) (A) (A) (A) (A)
                 (A) (A) (A) (A) (A) (A) (A) (A) (A) (A) (A) (A)
                 (A) (A) (A) (A) (A) (A) (A) (A) (A) (A) (A) (A)
                 (A) (A) (A) (A) (A) (A) (A) (A) (A) (A) (A) (A)
                 (A) (A) (A) (A) (A) (A) (A) (A) (A) (A) (A) (A)
                 (A) (A) (A) (A) (A) (A) (A) (A) (A) (A) (A) (A)
                 (A) (A) (A) (A) (A) (A) (A) (A) (A) (A) (A) (A)
                 (A) (A) (A) (A) (A) (A) (A) (A) (A) (A) (A) (A)
                 (A) (A) (A) (A) (A) (A) (A) (A) (A) (A) (A) (A)
                 (A) (A) (A) (A) (A) (A) (A) (A) (A) (A) (A) (A)
                 (A) (A) (A) (A) (A) (A) (A) (A) (A) (A) (A) (A)
                 (A) (A) (A) (A) (A) (A) (A) (A) (A) (A) (A)
 The electronic state is 1-A.
 Alpha  occ. eigenvalues -- -101.38973 -14.40987 -14.40924 -10.29517 -10.24354
 Alpha  occ. eigenvalues --  -10.23960 -10.23848 -10.22800 -10.19993 -10.16881
 Alpha  occ. eigenvalues --   -9.30371  -7.06236  -7.06179  -7.06154  -1.08419
 Alpha  occ. eigenvalues --   -0.96883  -0.83304  -0.80774  -0.74843  -0.73198
 Alpha  occ. eigenvalues --   -0.67766  -0.65317  -0.64827  -0.60076  -0.56375
 Alpha  occ. eigenvalues --   -0.51938  -0.51049  -0.48894  -0.48237  -0.45923
 Alpha  occ. eigenvalues --   -0.45687  -0.44851  -0.44172  -0.42489  -0.42042
 Alpha  occ. eigenvalues --   -0.40201  -0.39120  -0.37083  -0.31895  -0.27691
 Alpha  occ. eigenvalues --   -0.19442  -0.19178  -0.19110
 Alpha virt. eigenvalues --   -0.02841  -0.01554  -0.01081  -0.00065  -0.00051
 Alpha virt. eigenvalues --    0.01886   0.02498   0.02645   0.03698   0.04521
 Alpha virt. eigenvalues --    0.05351   0.05768   0.06041   0.06914   0.07513
 Alpha virt. eigenvalues --    0.08480   0.09044   0.09254   0.09906   0.10431
 Alpha virt. eigenvalues --    0.11177   0.11644   0.12132   0.13246   0.13561
 Alpha virt. eigenvalues --    0.13986   0.14362   0.15169   0.15310   0.15844
 Alpha virt. eigenvalues --    0.16233   0.16604   0.16876   0.17189   0.17983
 Alpha virt. eigenvalues --    0.18117   0.19041   0.19170   0.19486   0.19945
 Alpha virt. eigenvalues --    0.20374   0.21090   0.21692   0.23281   0.23386
 Alpha virt. eigenvalues --    0.23773   0.24324   0.24691   0.26097   0.26918
 Alpha virt. eigenvalues --    0.27110   0.27747   0.28019   0.28799   0.29711
 Alpha virt. eigenvalues --    0.30943   0.31346   0.33062   0.34172   0.36550
 Alpha virt. eigenvalues --    0.37439   0.38282   0.39493   0.41520   0.42136
 Alpha virt. eigenvalues --    0.44019   0.45069   0.46426   0.46688   0.47897
 Alpha virt. eigenvalues --    0.50412   0.50812   0.52349   0.52515   0.54297
 Alpha virt. eigenvalues --    0.55642   0.57142   0.59140   0.59216   0.59374
 Alpha virt. eigenvalues --    0.59911   0.61409   0.61784   0.62221   0.62723
 Alpha virt. eigenvalues --    0.64230   0.64475   0.65212   0.65831   0.66408
 Alpha virt. eigenvalues --    0.67205   0.68983   0.69871   0.70449   0.71874
 Alpha virt. eigenvalues --    0.72728   0.73365   0.75059   0.75528   0.78413
 Alpha virt. eigenvalues --    0.79234   0.82201   0.83840   0.86323   0.87952
 Alpha virt. eigenvalues --    0.92306   0.93313   0.94788   0.97463   0.99078
 Alpha virt. eigenvalues --    1.00135   1.01418   1.02640   1.03254   1.05076
 Alpha virt. eigenvalues --    1.05908   1.06902   1.08214   1.08668   1.10992
 Alpha virt. eigenvalues --    1.13519   1.14325   1.15991   1.18727   1.24512
 Alpha virt. eigenvalues --    1.26527   1.28997   1.30437   1.33713   1.35449
 Alpha virt. eigenvalues --    1.39822   1.41698   1.42846   1.44124   1.44907
 Alpha virt. eigenvalues --    1.46706   1.48436   1.50506   1.52025   1.53309
 Alpha virt. eigenvalues --    1.54060   1.54976   1.55672   1.56750   1.58188
 Alpha virt. eigenvalues --    1.59232   1.61181   1.61696   1.62950   1.64418
 Alpha virt. eigenvalues --    1.64966   1.66446   1.67925   1.68856   1.71272
 Alpha virt. eigenvalues --    1.73355   1.74318   1.75792   1.76757   1.79089
 Alpha virt. eigenvalues --    1.80514   1.82412   1.83615   1.85315   1.89311
 Alpha virt. eigenvalues --    1.93941   1.96076   1.98014   2.01013   2.02040
 Alpha virt. eigenvalues --    2.04199   2.06674   2.07080   2.10290   2.12268
 Alpha virt. eigenvalues --    2.13628   2.15023   2.19416   2.20901   2.27400
 Alpha virt. eigenvalues --    2.29327   2.31158   2.32394   2.37967   2.40195
 Alpha virt. eigenvalues --    2.41575   2.42113   2.43954   2.44957   2.46010
 Alpha virt. eigenvalues --    2.46823   2.48446   2.49038   2.50049   2.51318
 Alpha virt. eigenvalues --    2.52303   2.53567   2.55156   2.55937   2.57309
 Alpha virt. eigenvalues --    2.59005   2.59990   2.60594   2.61888   2.63216
 Alpha virt. eigenvalues --    2.65922   2.67027   2.68308   2.70133   2.73105
 Alpha virt. eigenvalues --    2.74928   2.76288   2.78553   2.80226   2.81361
 Alpha virt. eigenvalues --    2.83592   2.86588   2.89292   2.92717   2.98109
 Alpha virt. eigenvalues --    3.01264   3.01563   3.03131   3.07644   3.19730
 Alpha virt. eigenvalues --    3.25340   3.32278   3.40374   3.57369   3.60840
 Alpha virt. eigenvalues --    3.65125   3.71468   3.72648   3.76316   3.78910
 Alpha virt. eigenvalues --    3.80079   3.80606   3.82501   3.83130   3.85434
 Alpha virt. eigenvalues --    3.93890   3.96850   4.09442   4.13161   4.21627
 Alpha virt. eigenvalues --    4.74052   4.93337   4.94782   5.25449   9.89147
 Alpha virt. eigenvalues --   23.75555  23.81754  23.85692  23.91791  23.95844
 Alpha virt. eigenvalues --   23.97421  24.18468  26.04367  26.15868  26.26849
 Alpha virt. eigenvalues --   35.47203  35.60167 215.88278
          Condensed to atoms (all electrons):
               1          2          3          4          5          6
     1  C    5.704174   0.467332   0.256523  -0.046763  -0.340704   0.190400
     2  H    0.467332   0.499021  -0.068551  -0.002881   0.019496  -0.071252
     3  C    0.256523  -0.068551   5.413675   0.450428  -0.304792   0.104826
     4  H   -0.046763  -0.002881   0.450428   0.497624   0.009739   0.026998
     5  C   -0.340704   0.019496  -0.304792   0.009739  12.226378  -0.192340
     6  N    0.190400  -0.071252   0.104826   0.026998  -0.192340   6.837581
     7  N    0.145015   0.029584   0.282102  -0.068084  -0.330920  -0.149121
     8  C    0.101263  -0.026477   0.005815   0.002220  -0.226018   0.184445
     9  H    0.013268   0.000245  -0.006525   0.000018  -0.062580  -0.040686
    10  H   -0.028732  -0.000617   0.010445   0.000016   0.057028  -0.063727
    11  C    0.007216   0.001647  -0.102651  -0.018170  -0.257654   0.013329
    12  H    0.026493   0.000038  -0.023841   0.000975   0.058633  -0.011374
    13  H   -0.011618   0.000016   0.007781   0.000336  -0.094115  -0.000384
    14  H    0.010951   0.000009  -0.006209  -0.000299  -0.019849   0.009194
    15  C   -0.094912   0.008165   0.003739  -0.000267   0.086991  -0.090338
    16  H   -0.010954  -0.000155   0.004926   0.000008   0.014836  -0.002616
    17  H    0.001035  -0.000158   0.000545  -0.000001   0.004802   0.022739
    18  H    0.031831   0.000394  -0.005629  -0.000017  -0.040286  -0.024816
    19  Cl   0.158275  -0.001117   0.101479  -0.000788  -0.143253   0.059396
    20  C   -0.432537   0.002099  -0.084445   0.003016  -4.038590   0.043765
    21  H   -0.000920   0.000010   0.005696  -0.000000   0.259450  -0.029109
    22  H    0.003493  -0.000051   0.001081   0.000026  -0.231666   0.001153
    23  H    0.004348   0.000021  -0.000131  -0.000034  -0.202652   0.031972
               7          8          9         10         11         12
     1  C    0.145015   0.101263   0.013268  -0.028732   0.007216   0.026493
     2  H    0.029584  -0.026477   0.000245  -0.000617   0.001647   0.000038
     3  C    0.282102   0.005815  -0.006525   0.010445  -0.102651  -0.023841
     4  H   -0.068084   0.002220   0.000018   0.000016  -0.018170   0.000975
     5  C   -0.330920  -0.226018  -0.062580   0.057028  -0.257654   0.058633
     6  N   -0.149121   0.184445  -0.040686  -0.063727   0.013329  -0.011374
     7  N    6.766221  -0.020350   0.008212  -0.006666   0.225088  -0.071671
     8  C   -0.020350   5.643215   0.489644   0.414780  -0.020424  -0.000741
     9  H    0.008212   0.489644   0.527564  -0.032969   0.000454   0.000001
    10  H   -0.006666   0.414780  -0.032969   0.547442  -0.000034  -0.000004
    11  C    0.225088  -0.020424   0.000454  -0.000034   5.116449   0.394406
    12  H   -0.071671  -0.000741   0.000001  -0.000004   0.394406   0.538136
    13  H   -0.020458  -0.001623  -0.000012  -0.000006   0.417171  -0.022939
    14  H   -0.010700   0.002800   0.000021   0.000005   0.413043  -0.016442
    15  C    0.016882  -0.079673  -0.058479  -0.046510   0.008111   0.000162
    16  H   -0.003661  -0.015329  -0.005082   0.005371  -0.000066  -0.000003
    17  H   -0.000277  -0.077970  -0.006354  -0.002091   0.000015  -0.000000
    18  H    0.002648   0.055673   0.006997  -0.010019  -0.000369   0.000000
    19  Cl   0.124165   0.057890   0.001393  -0.002548  -0.012505  -0.003503
    20  C   -0.004939  -0.325285   0.006462   0.000683   0.105653  -0.008505
    21  H   -0.019885  -0.018327   0.000874   0.000137  -0.002439  -0.000052
    22  H    0.032144   0.023927  -0.000605  -0.000163   0.001378  -0.000067
    23  H   -0.008385   0.006604   0.000529  -0.000075   0.013975   0.000293
              13         14         15         16         17         18
     1  C   -0.011618   0.010951  -0.094912  -0.010954   0.001035   0.031831
     2  H    0.000016   0.000009   0.008165  -0.000155  -0.000158   0.000394
     3  C    0.007781  -0.006209   0.003739   0.004926   0.000545  -0.005629
     4  H    0.000336  -0.000299  -0.000267   0.000008  -0.000001  -0.000017
     5  C   -0.094115  -0.019849   0.086991   0.014836   0.004802  -0.040286
     6  N   -0.000384   0.009194  -0.090338  -0.002616   0.022739  -0.024816
     7  N   -0.020458  -0.010700   0.016882  -0.003661  -0.000277   0.002648
     8  C   -0.001623   0.002800  -0.079673  -0.015329  -0.077970   0.055673
     9  H   -0.000012   0.000021  -0.058479  -0.005082  -0.006354   0.006997
    10  H   -0.000006   0.000005  -0.046510   0.005371  -0.002091  -0.010019
    11  C    0.417171   0.413043   0.008111  -0.000066   0.000015  -0.000369
    12  H   -0.022939  -0.016442   0.000162  -0.000003  -0.000000   0.000000
    13  H    0.534073  -0.030525   0.000170   0.000003  -0.000000  -0.000001
    14  H   -0.030525   0.406343  -0.000665   0.000008   0.000001   0.000004
    15  C    0.000170  -0.000665   5.458372   0.406671   0.413532   0.364582
    16  H    0.000003   0.000008   0.406671   0.428203  -0.020387  -0.020827
    17  H   -0.000000   0.000001   0.413532  -0.020387   0.545206  -0.028957
    18  H   -0.000001   0.000004   0.364582  -0.020827  -0.028957   0.550506
    19  Cl  -0.000641   0.030954  -0.053741   0.007360   0.000648   0.004046
    20  C    0.066843  -0.035405   0.056809  -0.009531   0.007955  -0.018682
    21  H   -0.000279  -0.000175   0.003496  -0.000148   0.000008   0.000027
    22  H    0.000199   0.000169  -0.007160   0.001328  -0.000110  -0.000040
    23  H    0.000601   0.001769  -0.002080  -0.000035  -0.000004   0.000020
              19         20         21         22         23
     1  C    0.158275  -0.432537  -0.000920   0.003493   0.004348
     2  H   -0.001117   0.002099   0.000010  -0.000051   0.000021
     3  C    0.101479  -0.084445   0.005696   0.001081  -0.000131
     4  H   -0.000788   0.003016  -0.000000   0.000026  -0.000034
     5  C   -0.143253  -4.038590   0.259450  -0.231666  -0.202652
     6  N    0.059396   0.043765  -0.029109   0.001153   0.031972
     7  N    0.124165  -0.004939  -0.019885   0.032144  -0.008385
     8  C    0.057890  -0.325285  -0.018327   0.023927   0.006604
     9  H    0.001393   0.006462   0.000874  -0.000605   0.000529
    10  H   -0.002548   0.000683   0.000137  -0.000163  -0.000075
    11  C   -0.012505   0.105653  -0.002439   0.001378   0.013975
    12  H   -0.003503  -0.008505  -0.000052  -0.000067   0.000293
    13  H   -0.000641   0.066843  -0.000279   0.000199   0.000601
    14  H    0.030954  -0.035405  -0.000175   0.000169   0.001769
    15  C   -0.053741   0.056809   0.003496  -0.007160  -0.002080
    16  H    0.007360  -0.009531  -0.000148   0.001328  -0.000035
    17  H    0.000648   0.007955   0.000008  -0.000110  -0.000004
    18  H    0.004046  -0.018682   0.000027  -0.000040   0.000020
    19  Cl  17.851418  -0.403187  -0.001473  -0.004725   0.001710
    20  C   -0.403187  10.203815   0.166477   0.533532   0.513934
    21  H   -0.001473   0.166477   0.536517  -0.036953  -0.031368
    22  H   -0.004725   0.533532  -0.036953   0.476883  -0.008253
    23  H    0.001710   0.513934  -0.031368  -0.008253   0.483928
 Mulliken charges:
               1
     1  C   -0.154475
     2  H    0.143181
     3  C   -0.046288
     4  H    0.145897
     5  C   -0.251935
     6  N    0.149967
     7  N    0.083054
     8  C   -0.176056
     9  H    0.157611
    10  H    0.158253
    11  C   -0.303622
    12  H    0.140004
    13  H    0.155406
    14  H    0.245002
    15  C   -0.393857
    16  H    0.220080
    17  H    0.139824
    18  H    0.132916
    19  Cl  -0.771252
    20  C   -0.349937
    21  H    0.168436
    22  H    0.214480
    23  H    0.193313
 Sum of Mulliken charges =  -0.00000
 Mulliken charges with hydrogens summed into heavy atoms:
               1
     1  C   -0.011294
     3  C    0.099609
     5  C   -0.251935
     6  N    0.149967
     7  N    0.083054
     8  C    0.139807
    11  C    0.236790
    15  C    0.098963
    19  Cl  -0.771252
    20  C    0.226292
 Electronic spatial extent (au):  <R**2>=           1726.4357
 Charge=              0.0000 electrons
 Dipole moment (field-independent basis, Debye):
    X=              0.5466    Y=             -8.6004    Z=              3.5378  Tot=              9.3157
 Quadrupole moment (field-independent basis, Debye-Ang):
   XX=            -55.4613   YY=            -85.1920   ZZ=            -67.1464
   XY=              2.8943   XZ=             -0.3948   YZ=             11.0410
 Traceless Quadrupole moment (field-independent basis, Debye-Ang):
   XX=             13.8052   YY=            -15.9254   ZZ=              2.1202
   XY=              2.8943   XZ=             -0.3948   YZ=             11.0410
 Octapole moment (field-independent basis, Debye-Ang**2):
  XXX=            -11.5147  YYY=            -46.7290  ZZZ=             10.7928  XYY=              9.1527
  XXY=            -11.0115  XXZ=              0.9953  XZZ=             -0.8366  YZZ=            -13.5240
  YYZ=              6.4154  XYZ=             -4.8890
 Hexadecapole moment (field-independent basis, Debye-Ang**3):
 XXXX=          -1038.3243 YYYY=           -902.0685 ZZZZ=           -444.5931 XXXY=             10.1414
 XXXZ=             10.3278 YYYX=             12.7446 YYYZ=             51.4813 ZZZX=             -2.2618
 ZZZY=             26.5207 XXYY=           -312.2966 XXZZ=           -251.0315 YYZZ=           -205.3638
 XXYZ=             16.9932 YYXZ=             -2.4335 ZZXY=              5.9587
 N-N= 6.515387888974D+02 E-N=-3.289094998622D+03  KE= 8.415687225735D+02
 No NMR shielding tensors so no spin-rotation constants.
 Leave Link  601 at Mon Dec 22 19:35:47 2025, MaxMem=  6710886400 cpu:              11.0 elap:               0.2
 (Enter /public/software/g16/l9999.exe)
 Unable to Open any file for archive entry.
 1\1\GINC-CLUSTER\FOpt\RB3LYP\6-311+G(d,p)\C7H13Cl1N2\XXXXXX\22-Dec-202
 5\0\\#p opt b3lyp/6-311+g(d,p) em=gd3\\Title Card Required\\0,1\C,0.32
 66001382,-1.7290928066,-0.6082071134\H,1.0315059614,-2.331865437,-1.15
 25518588\C,-1.0206234179,-1.6358299301,-0.7008595303\H,-1.7175420082,-
 2.1353680849,-1.3498140614\C,-0.3493975024,-0.1873128105,0.8457159329\
 N,0.7274347388,-0.853097565,0.3871173137\N,-1.4346683191,-0.7132495832
 ,0.2427919623\C,2.132033753,-0.5418197886,0.6937634183\H,2.1568704341,
 -0.0803346918,1.6806323817\H,2.6588915736,-1.4959777762,0.7722865912\C
 ,-2.7654647603,-0.1102234755,0.2853165252\H,-3.4482970471,-0.742875668
 9,-0.2788681445\H,-3.1155010434,-0.0401031475,1.314878711\H,-2.6910042
 219,0.8810246146,-0.173255862\C,2.7574179714,0.3693792097,-0.361234554
 6\H,2.1559863078,1.2718152557,-0.4910553453\H,3.7737300826,0.632677201
 7,-0.0567796382\H,2.8069336379,-0.1360818921,-1.3285368733\Cl,-0.38701
 56813,2.0572638685,-0.9286468334\C,-0.3581379218,0.7812388581,1.971304
 8253\H,-0.2945171567,0.2559325182,2.9324017004\H,0.4715942571,1.476701
 246,1.8659791439\H,-1.2634218459,1.3813162352,1.9362110192\\Version=ES
 64L-G16RevC.02\State=1-A\HF=-844.4396978\RMSD=4.425e-09\RMSF=9.873e-06
 \Dipole=0.1196742,-3.1809225,1.816615\Quadrupole=10.3846975,-9.6371649
 ,-0.7475326,1.4775762,-0.3469465,9.6523902\PG=C01 [X(C7H13Cl1N2)]\\@
 The archive entry for this job was punched.


 WHEN ALL ELSE FAILS, TRY THE BOSS'S SUGGESTION.
 Job cpu time:       0 days  4 hours 54 minutes 12.5 seconds.
 Elapsed time:       0 days  0 hours  3 minutes 48.0 seconds.
 File lengths (MBytes):  RWF=     62 Int=      0 D2E=      0 Chk=      8 Scr=      1
 Normal termination of Gaussian 16 at Mon Dec 22 19:35:47 2025.
